/*--------------------------------*- C++ -*----------------------------------*\
  =========                 |
  \\      /  F ield         | OpenFOAM: The Open Source CFD Toolbox
   \\    /   O peration     | Website:  https://openfoam.org
    \\  /    A nd           | Version:  6
     \\/     M anipulation  |
\*---------------------------------------------------------------------------*/
FoamFile
{
    version     2.0;
    format      ascii;
    class       volScalarField;
    location    "0.0052";
    object      alphat;
}
// * * * * * * * * * * * * * * * * * * * * * * * * * * * * * * * * * * * * * //

dimensions      [1 -1 -1 0 0 0 0];

internalField   nonuniform List<scalar> 
18800
(
3.91833104121114e-07
1.00913083840815e-06
1.10814202125987e-06
1.0891808408076e-06
1.05215005705656e-06
1.00542207162402e-06
9.06827179588631e-07
3.17233567060772e-07
1.13592141429586e-05
2.41858635869923e-05
2.80394029343019e-05
2.91594721186099e-05
2.93623744916854e-05
2.91254308279898e-05
2.81843322484388e-05
1.91563966314798e-05
1.6356099150119e-05
4.12619209520784e-05
5.21187401441582e-05
5.68408001537072e-05
5.88100158424951e-05
5.9429122554673e-05
5.91196737065181e-05
5.34987155443271e-05
1.81269190519812e-05
5.23311544859421e-05
7.06757594033859e-05
7.96019770788442e-05
8.38251401061174e-05
8.56554261040403e-05
8.58001756885174e-05
8.57186239057814e-05
1.80151422214469e-05
5.9528740982289e-05
8.56747458768799e-05
9.92785842325764e-05
0.000106152590691173
0.000109484506453519
0.000110020814144087
0.000113934579673326
1.66804774490986e-05
6.38004199863508e-05
9.79329511401066e-05
0.000116653004491806
0.000126566360540112
0.000131696946519406
0.000132734614833493
0.00013837030505458
1.45673316089849e-05
6.56602551656849e-05
0.000107788246820303
0.000132024999997866
0.000145360960166964
0.000152605591313073
0.000154388428251771
0.000159812649327758
1.20369534534085e-05
6.54668084431399e-05
0.000115377246179163
0.000145485664784362
0.000162618280713097
0.000172304571497784
0.000175168238900106
0.000179227539423306
9.40992976417789e-06
6.35285365994586e-05
0.000120748773723328
0.000157029967564875
0.000178319866175873
0.000190784902114967
0.000195098663759966
0.000197146043513857
6.99704118193616e-06
6.01411130217219e-05
0.000123916551290366
0.000166605275501685
0.000192396120908929
0.000207980784027028
0.000214108142776856
0.000213856680217907
5.02130794317091e-06
5.55942396540064e-05
0.000124886370632562
0.000174133568260545
0.000204749218664104
0.000223795191817155
0.000232096678802292
0.000229466865704619
3.5074655321763e-06
5.01584672129968e-05
0.000123676917066216
0.000179522696353844
0.000215264443034837
0.0002381111980859
0.000248944176111495
0.000244068748546293
2.37934909736012e-06
4.40865202863565e-05
0.000120332599747619
0.000182673229326011
0.000223816162334135
0.000250799070015538
0.00026452205542566
0.000257754074945396
1.56238452695774e-06
3.7634486462983e-05
0.00011494055911891
0.000183484374332855
0.000230271331644089
0.000261719862737039
0.000278698332035876
0.000270507583391114
9.91909294643388e-07
3.10822670368491e-05
0.000107635569669491
0.000181861009454302
0.000234492058103614
0.000270727711148959
0.00029133760656653
0.000282266928785862
6.1008481889687e-07
2.47282366260967e-05
9.86215008117657e-05
0.000177724281384617
0.000236338251518117
0.000277671135423614
0.000302300809432308
0.000292956010295654
3.65272839954316e-07
1.88674435891789e-05
8.8167479587438e-05
0.000171026987849027
0.000235671280371898
0.000282394104638193
0.000311439563274917
0.000302503608346364
2.14159132602326e-07
1.37522474014984e-05
7.66341914286739e-05
0.00016177631370935
0.000232359688092488
0.000284737180338227
0.000318597133281517
0.000310838988844214
1.23858941121925e-07
9.55099411135865e-06
6.44522686040389e-05
0.000150063177284175
0.000226288336322416
0.000284539008249764
0.00032361214173451
0.000317882529752666
7.14603086581688e-08
6.31791888481039e-06
5.21441047608586e-05
0.000136097493017949
0.000217372774994476
0.000281639111556243
0.000326317488308287
0.000323539282752818
4.19738198219785e-08
3.99016486532132e-06
4.02718673502049e-05
0.000120241004253332
0.000205580834082875
0.000275882521879945
0.000326541682962389
0.000327697471353663
2.60637387611294e-08
2.41815491571324e-06
2.94205762174678e-05
0.000103027403970079
0.000190963066072112
0.000267129098294618
0.00032411077037411
0.000330233519098669
1.82244549019187e-08
1.41513431739051e-06
2.01420536376349e-05
8.51573351222635e-05
0.000173691555544269
0.000255267897258323
0.000318852187786976
0.000331019267309561
1.55759411052314e-08
8.04962438047855e-07
1.28969327404783e-05
6.74556793800227e-05
0.00015410259818012
0.000240243574004322
0.000310600341669564
0.000329915931177762
1.73030010739041e-08
4.47959308489398e-07
7.7225897165977e-06
5.07978478566934e-05
0.000132732535093163
0.000222090094425326
0.000299209049854722
0.000326766239378607
2.4831337964988e-08
2.45444437652312e-07
4.349964304631e-06
3.60070009399851e-05
0.000110329778121059
0.000200983921112818
0.000284570420746192
0.000321385658212344
4.313205392374e-08
1.3365285896328e-07
2.32884884942622e-06
2.37518963495911e-05
8.78340986778996e-05
0.000177291556506504
0.000266645402112932
0.000313561408415219
8.43147444935229e-08
7.36805730681029e-08
1.19919961295235e-06
1.44307600759821e-05
6.63205415391958e-05
0.000151628496747441
0.000245495705518002
0.000303079790970872
1.76351095260739e-07
4.27000701769417e-08
6.00152084078635e-07
8.04517783007847e-06
4.69051719056318e-05
0.000124871510074433
0.000221322455589428
0.000289760417114713
3.82764462541497e-07
2.785006343496e-08
2.94881898965103e-07
4.15079786012821e-06
3.06072069103481e-05
9.81597789216095e-05
0.000194485282939153
0.000273459179790259
8.41805142796349e-07
2.2527901422574e-08
1.44433995793733e-07
2.01426399310873e-06
1.81424083619525e-05
7.28166699935673e-05
0.000165569838027455
0.000254118882397553
1.81604288982827e-06
2.45288351804918e-08
7.28067413918045e-08
9.35992858782696e-07
9.70003885075521e-06
5.02468696059977e-05
0.000135491205918929
0.000231796496024287
3.635065264002e-06
3.59969576994349e-08
4.04657524163606e-08
4.22861179702985e-07
4.71445406438107e-06
3.17071728427862e-05
0.000105576996311834
0.000206509943884045
6.27871812402209e-06
6.59633086929048e-08
2.80030378736095e-08
1.89293474830952e-07
2.12697220354388e-06
1.80175701332963e-05
7.75314725169641e-05
0.00017808112671566
8.97838971342248e-06
1.38156203499289e-07
2.75994599182468e-08
8.72727458898797e-08
9.12533585869135e-07
9.17845327664335e-06
5.31129557336454e-05
0.000147124669933436
1.09074882267825e-05
3.10797275530295e-07
4.00471468243859e-08
4.52968120955284e-08
3.80671152031952e-07
4.24819561436556e-06
3.35527331113459e-05
0.000115340459004354
1.1959551048278e-05
7.2098865358616e-07
7.74194814864346e-08
3.11938892683503e-08
1.59155419156257e-07
1.83240239231378e-06
1.93879660899289e-05
8.5136858276366e-05
1.24445433067603e-05
1.65548256347141e-06
1.75640226940828e-07
3.37130293327907e-08
7.13305107607067e-08
7.55414555424327e-07
1.02628934554767e-05
5.87417650403183e-05
1.26472430284616e-05
3.52663599089104e-06
4.29380295120969e-07
5.70435883447237e-08
3.98587291261608e-08
3.05271781936459e-07
5.04117386131741e-06
3.76484357699345e-05
1.27269569558325e-05
6.3776107282874e-06
1.0691324311683e-06
1.2858399699368e-07
3.47906428869626e-08
1.26340213682255e-07
2.33923369894702e-06
2.23533396945203e-05
1.27569863656467e-05
9.27759164057479e-06
2.54026017234303e-06
3.31875701145899e-07
5.2467403689075e-08
5.94570803613406e-08
1.04246010738158e-06
1.23437699876022e-05
1.27679261396441e-05
1.12306443194878e-05
5.21655405612099e-06
8.9377168917434e-07
1.17451980069559e-07
3.92499332971965e-08
4.53482986253715e-07
6.40668809228552e-06
1.27718159532687e-05
1.22037296180977e-05
8.45532383583905e-06
2.31247059306858e-06
3.17657663874698e-07
4.51640017111086e-08
1.97688861408953e-07
3.164610258193e-06
1.27731939535359e-05
1.26101619207881e-05
1.08959579903328e-05
5.10275508696304e-06
9.07721299266616e-07
8.75554204936693e-08
9.16871679382844e-08
1.50566686540236e-06
1.27737082564154e-05
1.27640161444918e-05
1.21574253804873e-05
8.57291604520837e-06
2.46593378650952e-06
2.27446819259572e-07
5.15665094368082e-08
6.97690753004579e-07
1.27739358519505e-05
1.28186489914189e-05
1.26727196107726e-05
1.10882180995946e-05
5.54219660189417e-06
6.59415266226875e-07
4.29436007903404e-08
3.19792023212199e-07
1.2774070592343e-05
1.2836999221117e-05
1.28521975586396e-05
1.22875727469294e-05
9.13403054520707e-06
1.88911075897973e-06
5.94940309563852e-08
1.49657734356662e-07
1.27741739368117e-05
1.28429417031849e-05
1.29090400585382e-05
1.27395162580006e-05
1.14684119292695e-05
4.64852953392987e-06
1.23386680832569e-07
7.67178276898849e-08
1.27742651024192e-05
1.28445131169472e-05
1.29252389748893e-05
1.28913813815688e-05
1.24649673608281e-05
8.43655723551477e-06
3.17278260491241e-07
4.92568016435075e-08
1.27743497376844e-05
1.28446643667377e-05
1.29275977373699e-05
1.29391137457995e-05
1.28068238126864e-05
1.1197527284857e-05
8.82161548160259e-07
4.67455181499856e-08
1.27744305171284e-05
1.28441541766127e-05
1.29263915936853e-05
1.29559357590502e-05
1.2914716523114e-05
1.24219121993522e-05
2.38437633628482e-06
6.95352065343785e-08
1.27745092949e-05
1.2843357916491e-05
1.29234891387282e-05
1.2961035393794e-05
1.29469657690053e-05
1.28419893089436e-05
5.45025769989043e-06
1.45370118528974e-07
1.27745871575529e-05
1.28426331809709e-05
1.29208939302546e-05
1.29615310092067e-05
1.29561943753963e-05
1.2973120801137e-05
9.22626943948838e-06
3.65859753665911e-07
1.27746648540909e-05
1.28419180461582e-05
1.29193314122747e-05
1.29607705735659e-05
1.29589263393681e-05
1.30117879643016e-05
1.17770518471249e-05
9.79237852205527e-07
1.27747430914777e-05
1.28412307477663e-05
1.29181907841327e-05
1.2960537218927e-05
1.29604337559091e-05
1.30233246904325e-05
1.28448178150116e-05
2.50456183824642e-06
1.27748224325164e-05
1.28406519412525e-05
1.29167212326326e-05
1.2959957755557e-05
1.29616416259961e-05
1.30284968316491e-05
1.31447441614358e-05
5.45162278402705e-06
1.27749034794379e-05
1.2840232793411e-05
1.29151113770516e-05
1.29586441670901e-05
1.29624083460476e-05
1.30330346582295e-05
1.31870611280076e-05
9.15022380412332e-06
1.2774987197929e-05
1.28399526245379e-05
1.29140345656534e-05
1.29580285742033e-05
1.29635763780453e-05
1.3037244872125e-05
1.32029868253152e-05
1.19233139581147e-05
1.27750749873905e-05
1.28398706630343e-05
1.29130307487071e-05
1.2957112690223e-05
1.29649513639805e-05
1.30421900252388e-05
1.32263684704455e-05
1.32456028375412e-05
1.27751690668328e-05
1.28399909792684e-05
1.29120705372012e-05
1.2955029629066e-05
1.29655696008971e-05
1.30588424057936e-05
1.32625677957552e-05
1.37048420225915e-05
1.27752728271784e-05
1.28403478835916e-05
1.29109955278023e-05
1.29492739210109e-05
1.29647313314096e-05
1.3094072407829e-05
1.33449840671839e-05
1.39767898871568e-05
1.27753910970364e-05
1.28410320019566e-05
1.29105892972358e-05
1.29444782146667e-05
1.29649143633097e-05
1.31455858472269e-05
1.34601856405156e-05
1.433019709628e-05
1.27755312410386e-05
1.28420544486354e-05
1.29110542667441e-05
1.29415660819725e-05
1.29628053669041e-05
1.31717680151558e-05
1.35437352878784e-05
1.46147853841794e-05
1.27757040592394e-05
1.28434640506397e-05
1.29124396900225e-05
1.29403716286124e-05
1.29620853331658e-05
1.31479841624238e-05
1.35652043966592e-05
1.47753755768766e-05
1.27759257954551e-05
1.28452281977764e-05
1.2914544399422e-05
1.29406459789793e-05
1.29674689069299e-05
1.31150538300238e-05
1.35698591491975e-05
1.48516652199792e-05
1.27762201613249e-05
1.28473552807778e-05
1.29171090538879e-05
1.29424620301083e-05
1.29738832910726e-05
1.30949979370764e-05
1.35783012486068e-05
1.48725304027783e-05
1.27766217036379e-05
1.28499618307468e-05
1.29201780143063e-05
1.29449015517339e-05
1.29799215397535e-05
1.30907485695016e-05
1.35610591007119e-05
1.48226119874177e-05
1.27771833963669e-05
1.28531470710108e-05
1.29238644838849e-05
1.29486813712787e-05
1.2990638934795e-05
1.31001779942432e-05
1.35406401591607e-05
1.47285320549254e-05
1.27779890562519e-05
1.28569989936499e-05
1.29281252292451e-05
1.29534453539826e-05
1.29993789840964e-05
1.31130381432835e-05
1.35279516394726e-05
1.46293188781692e-05
1.27791670529019e-05
1.28618719449278e-05
1.29334625701374e-05
1.29592861890415e-05
1.30081576064864e-05
1.31267055849462e-05
1.35262505016819e-05
1.45515227349163e-05
1.27809080335319e-05
1.28678048080572e-05
1.29396905165339e-05
1.29661724799755e-05
1.30174814049342e-05
1.31402864333777e-05
1.35325053247348e-05
1.45011239573433e-05
1.27834441274972e-05
1.28747655774081e-05
1.29466830911089e-05
1.29743820824345e-05
1.30281943688122e-05
1.3154426792662e-05
1.35428862806727e-05
1.44726497338178e-05
1.27865137826626e-05
1.28824076416347e-05
1.29542246821003e-05
1.29828696195343e-05
1.30406234501355e-05
1.31703802760275e-05
1.35555545490488e-05
1.44582422124679e-05
1.27872531990496e-05
1.28883063015158e-05
1.29600162091977e-05
1.29937828579704e-05
1.30554993898707e-05
1.31880268905391e-05
1.35689596594101e-05
1.44510180327693e-05
1.27875942153412e-05
1.28890256578412e-05
1.29615072865168e-05
1.30019722378701e-05
1.30673604464393e-05
1.32030356625158e-05
1.35799370981912e-05
1.44460624343726e-05
1.27881242792073e-05
1.28890201628654e-05
1.29614327609323e-05
1.30081990311123e-05
1.30764702952521e-05
1.3215047670562e-05
1.35878855469476e-05
1.44424515106831e-05
1.27886936205156e-05
1.28878149657682e-05
1.29597116479891e-05
1.3012969708241e-05
1.30847101797688e-05
1.32264441945397e-05
1.35949773601232e-05
1.44422183056479e-05
1.27892313725617e-05
1.28869652114297e-05
1.29589083921526e-05
1.30180035408661e-05
1.30934967139874e-05
1.32388870714683e-05
1.36031386434497e-05
1.44460899730043e-05
1.27897514775737e-05
1.28862434168467e-05
1.29583440974868e-05
1.30229247474343e-05
1.31024014132394e-05
1.32521448939609e-05
1.36127817281148e-05
1.44509687686077e-05
1.27902488580029e-05
1.28857321198271e-05
1.29583704268359e-05
1.30263811419361e-05
1.31105803496297e-05
1.32657590967929e-05
1.36239888619615e-05
1.44527888540302e-05
1.27907258325259e-05
1.28854267714447e-05
1.29588800512576e-05
1.3029884523513e-05
1.31188610589884e-05
1.32798594678517e-05
1.36364403115231e-05
1.44516958378504e-05
1.27911830164788e-05
1.28852897958249e-05
1.29597319796057e-05
1.30335461453466e-05
1.31273571863492e-05
1.32941379617139e-05
1.36493335972573e-05
1.44503008967996e-05
1.27916201712492e-05
1.28853093903324e-05
1.29608644848445e-05
1.30375075925208e-05
1.31360253118964e-05
1.33080308628636e-05
1.36616894883897e-05
1.44490476024639e-05
1.27920378856384e-05
1.28854807463395e-05
1.29622391105571e-05
1.30417678713405e-05
1.31448992197903e-05
1.33215069251809e-05
1.36736960602651e-05
1.44477534291874e-05
1.27924353802577e-05
1.28857949704081e-05
1.29638223203957e-05
1.30462786910387e-05
1.3153971312151e-05
1.33347223543916e-05
1.36859585270758e-05
1.4444747311827e-05
1.27928115657854e-05
1.28862405354907e-05
1.29655918707389e-05
1.30510129175023e-05
1.31632307040299e-05
1.33478697205808e-05
1.36988317552287e-05
1.44361721315196e-05
1.279316606312e-05
1.28868054226694e-05
1.29675296682746e-05
1.30559455900243e-05
1.31726381726642e-05
1.3361073004454e-05
1.37117621851698e-05
1.44231651568352e-05
1.27934990262926e-05
1.28874769102745e-05
1.29696158657036e-05
1.30610397024031e-05
1.31821236040688e-05
1.33743544401113e-05
1.37247939334853e-05
1.44096030535623e-05
1.27938107462403e-05
1.28882404824818e-05
1.29718264332871e-05
1.3066248674499e-05
1.31916134887382e-05
1.33876810231902e-05
1.37378531313201e-05
1.43967414549711e-05
1.27941015175614e-05
1.28890795507587e-05
1.29741323764371e-05
1.30715179981118e-05
1.32010322391789e-05
1.34009693628564e-05
1.37508592828389e-05
1.43862556803596e-05
1.27943715534587e-05
1.28899754755375e-05
1.29764995605782e-05
1.30767860827511e-05
1.32102932849477e-05
1.34140549249228e-05
1.37638792447106e-05
1.43826000630379e-05
1.27946208513302e-05
1.28909074707931e-05
1.29788885758604e-05
1.30819848047147e-05
1.32192938543572e-05
1.34267259181477e-05
1.3777452184866e-05
1.43855823731328e-05
1.27948490414498e-05
1.28918525825996e-05
1.29812547812682e-05
1.30870386498445e-05
1.32279238871759e-05
1.34388186709805e-05
1.379127503951e-05
1.43899698309251e-05
1.27950552193592e-05
1.28927859341927e-05
1.29835493738568e-05
1.30918641584233e-05
1.32360669940873e-05
1.3450203372888e-05
1.38045418184921e-05
1.43940639409009e-05
1.2795237914078e-05
1.28936815077853e-05
1.29857202747165e-05
1.30963670224267e-05
1.32435788484759e-05
1.34606823789077e-05
1.38168285555764e-05
1.43974944135241e-05
1.27953949244995e-05
1.28945089088465e-05
1.29877029926297e-05
1.31004267402081e-05
1.3250273792955e-05
1.34700040808862e-05
1.38278576202088e-05
1.44006417604291e-05
1.27955221270416e-05
1.28952245191564e-05
1.29894086526094e-05
1.31039090644256e-05
1.32560242030523e-05
1.34781546656737e-05
1.38378200820773e-05
1.44044905594118e-05
1.27956164554916e-05
1.28958394841685e-05
1.29909008962287e-05
1.3107014059579e-05
1.32613481971818e-05
1.34862322431397e-05
1.38488279988914e-05
1.44129762776363e-05
1.27956852609264e-05
1.28964018969822e-05
1.29922562041056e-05
1.31096999106792e-05
1.32656174785454e-05
1.34918649771733e-05
1.38549631320976e-05
1.4413927242931e-05
1.27956865398882e-05
1.28958569487628e-05
1.2990881031446e-05
1.31066514630922e-05
1.32593274195925e-05
1.3479548448931e-05
1.38327037460932e-05
1.43729979714069e-05
6.82931788102594e-07
8.0180209505095e-07
8.4081851876872e-07
8.57284876368516e-07
8.60718303876471e-07
8.55091075559123e-07
8.44594082159262e-07
8.32696150059413e-07
8.20700630177896e-07
8.09037155122448e-07
7.98043534868011e-07
7.87635786071901e-07
7.77907613631731e-07
7.68897970671205e-07
7.60502356708406e-07
7.52548423829021e-07
7.44900166627443e-07
7.3746678877851e-07
7.30241011922492e-07
7.23224218644567e-07
7.16429216901079e-07
7.09854592477675e-07
7.03485882090983e-07
6.97289820920067e-07
6.91254060867967e-07
6.85423353908711e-07
6.80029763479274e-07
6.73618579107269e-07
5.57388808257631e-07
2.06291647408253e-07
2.8940939554641e-05
3.1419290051449e-05
3.23751524977426e-05
3.28012270037031e-05
3.29108489853367e-05
3.281485845039e-05
3.26095881347554e-05
3.23695999669997e-05
3.21209052274525e-05
3.1872646960291e-05
3.16337386676469e-05
3.14018289726213e-05
3.11788868543725e-05
3.09664734587988e-05
3.07633765803846e-05
3.05663195910297e-05
3.03723599537365e-05
3.01791713434638e-05
2.99867019459714e-05
2.97946323370889e-05
2.96027497131541e-05
2.94102994109099e-05
2.92159046575253e-05
2.90171545289709e-05
2.88110839075612e-05
2.8593526408666e-05
2.83577718579478e-05
2.80383494045108e-05
2.63754475199382e-05
1.5534618994674e-05
7.15044041981372e-05
7.65447072062567e-05
7.90736995807591e-05
8.03209758197677e-05
8.07250150404313e-05
8.06050907487773e-05
8.02111144736499e-05
7.97233963113602e-05
7.9199101010902e-05
7.86605926238845e-05
7.81340073635597e-05
7.76110877171279e-05
7.70940548785925e-05
7.65874275190004e-05
7.6090906856621e-05
7.55986415026123e-05
7.51045177952968e-05
7.46029685549202e-05
7.40939672539824e-05
7.35755380028429e-05
7.30451635838067e-05
7.2498538148745e-05
7.1929062595277e-05
7.1326270092108e-05
7.067541691147e-05
6.99527982831689e-05
6.91113151711604e-05
6.79542969010361e-05
6.89277963777179e-05
4.83340428187653e-05
0.000107335941960303
0.000114595365952743
0.000118906678318861
0.000121193865378922
0.000122035723803743
0.000121990452552194
0.000121484721765234
0.000120811751828897
0.000120062037108478
0.000119274145432441
0.000118495921158028
0.00011771133472179
0.000116921165867238
0.000116133803182981
0.000115351440536364
0.000114566595462476
0.000113770869331512
0.000112955649790437
0.000112121076695168
0.000111263090096986
0.000110375969380752
0.00010945077240987
0.000108474296595833
0.00010742615145012
0.000106276763476355
0.000104976812691048
0.0001034264103911
0.000101293827410027
0.000107725506911948
8.19626288907999e-05
0.000137521194791214
0.000146795634883977
0.000153010345805932
0.000156501480750572
0.000157901716775126
0.000158018552997516
0.00015747095959682
0.000156669054438618
0.000155741048892104
0.000154745134608003
0.000153754199215192
0.000152743184365604
0.000151710980383742
0.000150670363694256
0.000149627178716933
0.000148572827164551
0.000147497123539029
0.000146388637238303
0.000145247750632399
0.000144068334125265
0.000142841261374134
0.000141552701928218
0.000140182547194461
0.000138700103446442
0.000137060276923587
0.000135186103552795
0.000132921626075288
0.000129814078959399
0.000141641782350948
0.00011315446760701
0.0001640239069668
0.000175212666015224
0.000183438378134438
0.000188290204286568
0.000190366268177405
0.000190729373036475
0.000190204661461277
0.000189323328777073
0.000188257169617248
0.000187087752603852
0.000185916307954106
0.000184707922404388
0.000183459350133421
0.000182188570588718
0.000180905795502856
0.000179601707685818
0.000178264637510245
0.00017688047167069
0.000175449850099399
0.000173964671878495
0.000172412351944146
0.000170774059547769
0.000169022631302609
0.000167116878093432
0.000164995678586459
0.000162553275247299
0.000159575764084484
0.000155503291728976
0.000171136234789452
0.000141919225503635
0.000188042908335896
0.000201099956003854
0.000211461895017355
0.000217827699751417
0.000220694913720348
0.000221387337523136
0.000220947734137569
0.000220032526089883
0.000218863781934767
0.000217550192406363
0.000216224751570642
0.000214842200977727
0.00021339740867567
0.000211914111501345
0.00021040749964861
0.000208867915672156
0.00020728240367341
0.000205634249330691
0.000203924340579454
0.000202142728877912
0.000200273377811359
0.000198292384392501
0.000196165415131277
0.000193840626729442
0.000191240117599572
0.00018822910240581
0.000184533763654879
0.000179498718895443
0.000197270307137707
0.000168703715633307
0.000210213303900531
0.000225174991131756
0.000237810603161471
0.000245837993236051
0.000249610873315145
0.000250716776929905
0.000250424827203237
0.000249520577957158
0.000248283374298573
0.000246852619116431
0.000245396563692414
0.000243859795115573
0.000242235722233431
0.000240554166718173
0.000238835881089993
0.000237071255308988
0.000235246214087931
0.000233341502823268
0.000231358243158148
0.000229284782821336
0.000227101683922782
0.000224779926109973
0.000222277913425181
0.000219533017582668
0.000216449757588259
0.000212864236518286
0.000208441206267737
0.000202437974700251
0.000221054588672596
0.00019393778169373
0.000230882672627942
0.000247818715994159
0.000262907325349558
0.000272739130403677
0.000277532776036739
0.000279139235417265
0.000279060026258871
0.000278213397926248
0.000276942885384918
0.000275421958153492
0.000273857605149892
0.000272185508914338
0.000270397902624204
0.00026853085577709
0.000266611296707432
0.000264630083670388
0.000262572185915605
0.000260415869548416
0.00025816248492015
0.000255798839681898
0.000253302182599053
0.000250638358403741
0.000247758446713317
0.000244588945115103
0.000241015908803848
0.000236846496532454
0.000231682875767178
0.000224700361082065
0.00024326470311225
0.000217977466066158
0.000250293135925048
0.000269274937479687
0.000287002196657803
0.000298775875275204
0.000304706924895236
0.000306905222682689
0.00030710790053091
0.000306369178395366
0.000305103311503851
0.000303520876560823
0.000301870915736224
0.000300082891045527
0.000298147717265105
0.000296107802044844
0.000293996907201248
0.000291806828322136
0.000289521764226372
0.000287117576478324
0.000284595855951785
0.000281942054800995
0.000279130232976619
0.00027612111262824
0.00027285842631138
0.000269257400791341
0.000265185702283542
0.000260420969645239
0.00025450232837206
0.000246525699399497
0.000264395539366976
0.000241151611387242
0.000268580201987363
0.000289731787493832
0.000310243153304786
0.00032409055368753
0.000331277283632124
0.000334163462761277
0.000334722472573763
0.000334146839466042
0.000332927698823443
0.000331315359813474
0.000329603926172677
0.000327720984850819
0.000325655444856258
0.000323456100881011
0.000321164264101329
0.000318773199587484
0.000316266556349661
0.000313617889619425
0.000310829064828084
0.000307884384629469
0.000304754880471183
0.000301396197055278
0.000297744747450447
0.000293704053673333
0.000289123602622499
0.000283751062872571
0.000277062502602409
0.000268074643787801
0.000284765954054045
0.000263906706391255
0.000285855691973671
0.000309304507812749
0.000332713684403528
0.000348760510026042
0.000357322590373046
0.000360997826168259
0.000361993747425515
0.000361642254935414
0.0003605170883005
0.000358910416610464
0.00035716397194827
0.000355209573703753
0.000353032881799108
0.000350689100668501
0.000348227865225455
0.000345644518449617
0.000342922429261112
0.000340032975789882
0.000336978357925817
0.000333741956694762
0.000330291970924442
0.000326579048868949
0.000322532374622203
0.000318043270606428
0.000312943426810945
0.000306950219454976
0.000299477125007395
0.000289459919375018
0.00030459370895973
0.000286531861463542
0.000302120357643871
0.000328081934093447
0.000354454086371347
0.000372819121877945
0.000382877132964616
0.00038744785094021
0.000388968029411342
0.000388908388546113
0.000387930482901319
0.000386369917330531
0.000384618045243648
0.000382618780865476
0.000380352812312486
0.000377881750875065
0.000375264379980413
0.000372498818006014
0.000369568484544898
0.000366442747359021
0.000363124229365408
0.000359595639997182
0.000355822577026885
0.000351750812449039
0.000347302470497135
0.00034235608174985
0.000336726147304612
0.000330099547514931
0.000321828151756415
0.000310763828819013
0.000324036531590575
0.000309209142560261
0.000317359527219274
0.000346084057080752
0.000375473917172825
0.000396268056858406
0.000407942727582627
0.000413520570896648
0.000415659591946721
0.000415966857890843
0.000415196303935405
0.000413727984344741
0.000412004165111426
0.000409990353636247
0.000407660223420508
0.000405081757428271
0.000402323743539584
0.000399387874161517
0.000396258023381258
0.000392901758736336
0.00038932224555193
0.000385501794149695
0.00038140366881426
0.000376968928339323
0.000372112816021837
0.000366700594268304
0.000360530211885778
0.000353258037129364
0.000344175863901852
0.000332048454898832
0.000343214537261501
0.000332043952767413
0.000331545156364006
0.000363268714839699
0.000395759678341141
0.000419084515925023
0.000432495906886964
0.000439197588447218
0.000442057640720082
0.000442814830143489
0.000442319209724063
0.000440995776930861
0.000439338188333382
0.000437344418350875
0.0004349790282901
0.000432316282618187
0.000429435831753756
0.0004263438533629
0.00042302516503124
0.000419445793297298
0.000415609597766416
0.000411498784886546
0.000407074589507535
0.000402273567420872
0.00039700405662507
0.000391118332698909
0.00038439783242603
0.000376468790086128
0.000366565016344516
0.000353361829023078
0.000362223227603711
0.000355083426182766
0.000344643739314389
0.000379595917649473
0.000415279514595348
0.000441225485556737
0.000456492303026869
0.000464439393628559
0.000468130536691268
0.000469429204503147
0.000469284215452568
0.000468165592373219
0.000466617965920571
0.000464683595102027
0.000462316172838518
0.000459596050254674
0.000456614563406254
0.00045338340972928
0.000449888936852716
0.000446095944282672
0.000442009171575391
0.000437611039637944
0.000432861095071906
0.000427691653174759
0.000422004137146097
0.000415638218424132
0.000408358935705045
0.000399762937657256
0.000389028698403638
0.0003747415667495
0.000381140588797962
0.000378314096667649
0.000356613379756655
0.00039503754722958
0.000433985681805628
0.000462630296334449
0.000479869335716218
0.000489188024058751
0.000493828362651849
0.000495769162837374
0.000496059188916967
0.000495213346538179
0.000493825891276566
0.0004919955122508
0.000489664159017582
0.000486917880477083
0.000483860445797343
0.000480510239464642
0.000476855835598054
0.000472861181197101
0.000468532116219969
0.000463851617832772
0.000458777923463532
0.000453239429391171
0.000447130640699239
0.000440279123219015
0.000432433705950328
0.000423162166478697
0.000411590817678317
0.000396216757031554
0.000400032297299302
0.000401667754060309
0.00036742949970633
0.000409549283660282
0.000451815297360023
0.000483222030812749
0.000502547800538033
0.000513368662290449
0.000519084456654834
0.00052177768955778
0.000522596322477535
0.000522100025956405
0.000520930413847666
0.000519254296967398
0.000517002557164168
0.000514266220914734
0.000511162125422563
0.000507716649548955
0.000503921412228584
0.000499739949151641
0.000495179456617198
0.000490223833663473
0.000484830426365189
0.000478924101258022
0.000472392432732649
0.000465051516011247
0.000456634230979732
0.000446680358721639
0.000434267708936887
0.000417809213194048
0.000418955115172753
0.000425029954460096
0.000377090526682986
0.000423105517403408
0.000468690138890755
0.000502908038049067
0.000524432678218336
0.000536890552447178
0.000543816302588159
0.000547382418164466
0.000548832939949183
0.000548772465619914
0.000547886854193196
0.000546421385110269
0.000544298847137722
0.000541614009472893
0.000538497275812526
0.000534984469754724
0.000531071206307014
0.000526721124249858
0.000521943068112361
0.000516722248493394
0.000511015577575307
0.000504744861328389
0.000497790695968582
0.000489958507774704
0.0004809655536369
0.000470324644819019
0.000457069164494244
0.000439533941299276
0.000437956393951512
0.000448250919889905
0.000385577284468018
0.000435641059281001
0.000484515234485273
0.000521579849052414
0.000545413361071135
0.000559647482756698
0.000567925981529356
0.000572496020643928
0.000574691854419162
0.00057516367017129
0.000574637722182546
0.000573445863057276
0.0005715087946982
0.000568923071426808
0.000565833023091101
0.000562285506485068
0.000558281226466223
0.000553784519579892
0.000548806206652931
0.000543333223694203
0.000537322546979387
0.000530693487808409
0.00052331954114467
0.000514996477786866
0.000505426309766734
0.000494096047846768
0.000479999064050669
0.000461399870920501
0.00045707380402612
0.000471154492211142
0.000392838635710882
0.000447032099381443