/*--------------------------------*- C++ -*----------------------------------*\
  =========                 |
  \\      /  F ield         | OpenFOAM: The Open Source CFD Toolbox
   \\    /   O peration     | Website:  https://openfoam.org
    \\  /    A nd           | Version:  6
     \\/     M anipulation  |
\*---------------------------------------------------------------------------*/
FoamFile
{
    version     2.0;
    format      ascii;
    class       volVectorField;
    location    "0.0052";
    object      ddt0(rho,U);
}
// * * * * * * * * * * * * * * * * * * * * * * * * * * * * * * * * * * * * * //

dimensions      [1 -2 -2 0 0 0 0];

internalField   nonuniform List<vector> 
18800
(
(-37.6020968467295 0 -0.388158140163516)
(-11.7586377123377 0 -0.196884041708092)
(-16.5427570958982 0 -1.59778620236942)
(9.37850863254373 0 3.15552465817197)
(-35.5425931628844 0 -2.93686629361007)
(-80.8378636118622 0 -2.56118628447762)
(-101.823131933479 0 -6.23898215027239)
(-162.604412477438 0 9.99311307562031)
(-57.8494877259259 0 -0.00379287605741257)
(-20.0488624437312 0 -2.91991714663058)
(-19.3014523507911 0 -17.9398737454618)
(19.6992949980401 0 71.0705424591044)
(-24.8114748777322 0 -11.699860083973)
(-73.4605605059264 0 -8.4558357952509)
(-73.6272460412313 0 -1.04858289571104)
(-222.930851427356 0 -13.3046389864091)
(-71.7768740347756 0 -0.655831713796986)
(-27.7991782201977 0 -4.16103972081182)
(-21.0326769611725 0 -26.9770661532191)
(27.067487175513 0 104.271539217219)
(-16.6768458754822 0 -19.64022986051)
(-66.4049317931344 0 -14.4196330433041)
(-63.6554808772837 0 -33.358741371364)
(-278.883935437356 0 -10.5738381959844)
(-80.5568102672785 0 0.171673309524664)
(-35.1222417676143 0 -6.02446617782597)
(-22.0818008532814 0 -39.2967519201017)
(29.7775997384514 0 149.88519252537)
(-10.4713205276003 0 -28.8670865739954)
(-59.6347952711306 0 -20.4184005754246)
(-57.0186008690809 0 -6.68219452218233)
(-305.697295245761 0 -8.01203948445353)
(-86.283787188063 0 -1.06391900262783)
(-42.5011262182153 0 -7.27901548592899)
(-22.932633280253 0 -47.6989202281238)
(28.4333659102285 0 176.842742953593)
(-5.58782654516144 0 -35.7984451746725)
(-53.3404932215152 0 -25.7646431285796)
(-57.8590234849014 0 -54.4810860623223)
(-291.760274313995 0 -11.7063611344026)
(-90.117312968707 0 -1.26958708609809)
(-50.0035438652659 0 -8.03292382996699)
(-23.3570015899154 0 -54.7515422926311)
(21.7985419894587 0 196.127440339784)
(-1.72589000261569 0 -43.1417470798488)
(-46.7707192716038 0 -30.3455258297241)
(-59.4840586904681 0 3.88111919801809)
(-249.251022132385 0 -2.12871177990068)
(-92.7276630931153 0 -1.08710502825043)
(-57.8518917204678 0 -8.71602132331928)
(-23.5606354458084 0 -58.1062631690765)
(10.887922355308 0 200.079206696877)
(1.10094145373182 0 -47.7049484156777)
(-39.3836081372542 0 -32.3976985059717)
(-79.1363852680037 0 -106.569601258718)
(-278.142422234907 0 -8.43448401234132)
(-94.094887454771 0 -3.09347145745911)
(-65.8912369513885 0 -7.89897487318799)
(-23.6038226617432 0 -57.8199896593489)
(-3.52966388891727 0 190.290436343404)
(3.19167821230982 0 -49.9111047778234)
(-31.0834565795543 0 -33.429785191517)
(-90.3207356293903 0 -5.34312885363473)
(-311.222680002436 0 6.52215293166948)
(-92.4513355679515 0 2.49297612162867)
(-74.2277434491471 0 -7.89408113717051)
(-23.8622458363559 0 -53.4930015329272)
(-19.7494266389549 0 167.309359509543)
(4.67865363724921 0 -48.279034977985)
(-22.1882433213023 0 -31.762762493459)
(-74.5227333887303 0 -40.2241307751737)
(-331.267719576011 0 -23.7261266603357)
(-89.8120680522771 0 -5.23087116783018)
(-82.4733961710433 0 -5.07961414071435)
(-24.4978146561076 0 -44.3883670457336)
(-36.0567330523888 0 132.318680044416)
(5.76873043743001 0 -42.3368478147473)
(-12.7592877860999 0 -27.2646200007931)
(-54.7318586516179 0 -11.756059516977)
(-309.382133236795 0 112.215155139696)
(-81.7749526688219 0 21.5139848924923)
(-90.3231912449434 0 -4.68591375872997)
(-25.2943694262305 0 -31.7415496308942)
(-50.8703902699655 0 88.0554867127743)
(6.61708113746928 0 -31.8139059529746)
(-3.43427598791046 0 -20.8596057592989)
(-27.941369996922 0 -24.1607911534549)
(-315.152860557692 0 -245.51192844229)
(-89.9435295542361 0 -16.7618551629575)
(-96.3136402732953 0 0.48093017459229)
(-26.4665907751178 0 -15.7721504838049)
(-63.0945828838847 0 36.3655021302272)
(7.32934631803837 0 -17.2711003595375)
(5.04509083808994 0 -12.0336020350861)
(6.40863285503755 0 12.8972526699716)
(-281.665174382591 0 349.302752686938)
(-109.338098625067 0 -1.47041284129624)
(-98.9109661982926 0 0.047324907720143)
(-28.1922345915507 0 2.37589982050461)
(-71.2629935529305 0 -20.6958912486601)
(7.96088658922418 0 -0.240564678307184)
(12.7335517157413 0 -1.92968326610445)
(38.7524288495772 0 -8.2636404397725)
(-127.376369263569 0 89.2545795743083)
(-111.424422963459 0 -5.51744204329008)
(-94.6848509362828 0 6.16122672375749)
(-30.6005191482323 0 21.2186088513987)
(-73.3280223903176 0 -77.001090287265)
(8.59405514212594 0 17.0648400302735)
(20.0849167078669 0 8.32540233871105)
(55.0561925148327 0 -0.729860665835397)
(15.3625393377624 0 58.4929112183329)
(-102.973615661313 0 -0.990042310983433)
(-84.4157775054066 0 3.5243797284419)
(-34.8031704139413 0 37.6970053300354)
(-70.87960835001 0 -144.54012748942)
(9.46089182342578 0 31.8761100321921)
(27.5535346135603 0 17.254695096928)
(65.0524069186106 0 0.0437103209466033)
(129.874968122132 0 52.0989370111552)
(-89.2546852938644 0 -1.20399097467294)
(-70.4341669219063 0 10.1060163401675)
(-42.2167682673776 0 49.2855865917657)
(-55.3655273208494 0 -168.500693425019)
(11.0524801950761 0 41.5898182862786)
(35.3725898610995 0 23.1149494958329)
(76.2671880736317 0 12.9775189471597)
(191.033906335495 0 41.9351560133687)
(-76.726847021455 0 -0.297320246626679)
(-59.5106666410158 0 3.9962088787912)
(-51.4113673840776 0 56.0159642051436)
(-39.1006110090108 0 -241.715427818934)
(14.1203981229477 0 45.5692555941399)
(43.676937565829 0 24.6982294045344)
(91.6479212747376 0 9.39814591151458)
(208.869127411303 0 30.582564644653)
(-68.6902972617559 0 -0.485903486716132)
(-57.1131188855375 0 8.08078378785373)
(-61.6470660337839 0 47.3872826139079)
(0.474607524478059 0 -158.320701860185)
(18.790772899919 0 40.1485667967321)
(52.4539103064709 0 21.0065632667303)
(107.592746290172 0 8.15620145117563)
(209.961898945266 0 16.3642975818456)
(-66.8154550791571 0 0.219319576948463)
(-66.9219623049598 0 -2.90674707169934)
(-71.2244170189641 0 39.4813759104142)
(25.9721645254261 0 -201.495245195151)
(25.9010296912468 0 34.0150061167952)
(61.6534068045233 0 12.0820988428816)
(124.367012544561 0 -0.275179975668764)
(212.568535794536 0 4.62991813282739)
(-71.1917096743149 0 -0.255304692795358)
(-86.3809260241729 0 -6.34255621053268)
(-89.9754777227341 0 7.55405276968764)
(41.1566136029584 0 -65.0463742146378)
(32.7519833164298 0 11.7321878246178)
(71.3281982406919 0 -0.515797988166524)
(140.630384802667 0 -9.96984835133565)
(231.532980120533 0 -0.341184884117951)
(-78.9933198956657 0 0.825373327383165)
(-102.561258893202 0 -8.13454555187443)
(-116.672257641207 0 -13.5701949824664)
(76.1594740379485 0 171.083941663954)
(41.0296822399126 0 -1.27097978403538)
(81.3121490696721 0 -17.424183133056)
(156.368673724036 0 -22.8836083595223)
(269.650924839594 0 -3.43262252837728)
(-87.1071498934921 0 0.38253573589829)
(-114.113237067793 0 -12.3257721279719)
(-121.564006384348 0 -44.042298861542)
(-56.6414915618145 0 -231.57299788013)
(49.2770937510205 0 -18.9232169022433)
(93.2299366897454 0 -29.1247844296313)
(170.956290780761 0 -35.3109024298346)
(311.879526385355 0 -7.16989978488888)
(-92.0566772613505 0 0.0174528819909554)
(-116.296337606513 0 -8.92003070060816)
(-82.4888637413133 0 -58.8141344385421)
(70.1294270957811 0 824.487695670509)
(48.1922084482588 0 -82.5318517340838)
(105.571105262832 0 -45.8024204853455)
(184.93672020512 0 -44.1017039246921)
(345.643687113525 0 -3.86208468892427)
(-90.295723247352 0 0.842729149304863)
(-105.082683550401 0 -7.66464421735343)
(-58.5879838105135 0 -76.0157673784515)
(-135.216492329659 0 -544.340199044805)
(69.6912323105024 0 25.1096624518522)
(122.943203143869 0 -42.4668404735969)
(198.902266426058 0 -49.1792256184625)
(372.203713392591 0 12.5559165731367)
(-82.4224357801505 0 3.40745099800018)
(-80.7780832461775 0 -3.62712827584681)
(-30.0290341020928 0 -39.7404411135733)
(-119.867137749431 0 567.521640740712)
(40.4692384952813 0 -181.544552924812)
(142.062517008667 0 -36.6282392753116)
(214.313713354549 0 -48.0728913941117)
(386.646814555718 0 22.9617959039103)
(-77.3870343928601 0 0.940220931097205)
(-64.5810754717017 0 1.19729385163869)
(-33.4570761127506 0 -28.3400582891016)
(6.34050681471602 0 419.790611999077)
(54.4977204280122 0 60.1544513926736)
(160.129753906963 0 -38.3499569611277)
(233.315130579045 0 -37.4303071397343)
(375.607819040322 0 1.8066545121796)
(-72.4240972585094 0 4.83627234133114)
(-55.240596777194 0 13.8116858286318)
(-87.4673365769513 0 6.22085250643943)
(-508.529510743671 0 -1406.15429653892)
(71.6666872632301 0 68.5441933938776)
(193.209097881773 0 29.8158975700922)
(254.638453142242 0 -33.8527232376901)
(339.982554699703 0 -30.3814371475113)
(-69.4606214866938 0 -1.21122346099322)
(-55.3748728665872 0 11.1283607658657)
(-56.6792418890719 0 78.2740326243855)
(273.916606349528 0 1515.15159124146)
(-56.2288566951395 0 -339.598557659874)
(198.258857407613 0 -21.7513884725042)
(284.304877485702 0 -5.10521337253033)
(295.382101736816 0 -46.2742469275848)
(-67.5662900837757 0 1.68342492863797)
(-70.981651814296 0 13.6341817064783)
(-79.447277370815 0 19.0150448056197)
(61.0929772847735 0 -1331.00978362551)
(81.1065428901252 0 579.928836378293)
(210.541237392676 0 -1.0371590899538)
(314.72744991655 0 -15.8176261890258)
(250.382956485725 0 -58.4747368666683)
(-66.7321295220534 0 1.26079018227578)
(-83.1311046541188 0 -11.7242380676367)
(-101.725464137469 0 42.8734341878453)
(-216.173049907193 0 -357.321200702318)
(-25.7513060990245 0 -295.669216029787)
(225.351190523498 0 95.2424755577912)
(332.704201518015 0 -60.1397402009715)
(218.218575015327 0 -21.9497155988106)
(-67.0302919624477 0 1.64871046320392)
(-93.3152179883317 0 -26.201162908598)
(-35.4029394800651 0 -16.360031483872)
(216.436282794746 0 1308.36159499903)
(0.799850823966756 0 -185.217953609648)
(131.699821152707 0 -195.673611053125)
(343.285634395127 0 29.7022579859732)
(214.998202559525 0 -36.2502899239718)
(-67.7193382559963 0 1.82671081532957)
(-78.9512592978866 0 -8.94045030800261)
(53.1369421571657 0 -85.832424403098)
(-209.942252880466 0 -1573.68946250741)
(130.82938123325 0 542.309553271815)
(121.556835405835 0 24.6755848588967)
(291.453456837192 0 -108.048675407413)
(255.311564398092 0 -35.1638263252777)
(-68.3067481258369 0 3.17040660230837)
(-75.2748757796155 0 -3.05257861476005)
(-50.3229156280099 0 -12.185828118251)
(-8.21502640764779 0 1546.10208493463)
(46.5531300690314 0 -495.914611678901)
(116.43696769875 0 -10.9257550389578)
(201.143372651188 0 -59.9136583670601)
(404.333193336934 0 -46.0180390089926)
(-68.7998239044799 0 3.38128158667136)
(-73.333859700325 0 -4.37144251280542)
(-77.5731669515715 0 -39.8411688901046)
(276.901948487714 0 928.827838292057)
(-84.4562574240367 0 -13.2592622844376)
(24.3691970806879 0 -169.391793110078)
(168.524006909791 0 -40.1808091275138)
(547.410067582034 0 -49.4726044066456)
(-69.4306812886356 0 3.30023568463111)
(-74.097622273098 0 4.18773740192971)
(-142.833819612885 0 -89.0252713592991)
(-919.354909346424 0 -3015.50862639927)
(-232.978143202708 0 311.7404457537)
(-8.8773931356774 0 -18.5964743090463)
(126.82889388365 0 -63.8712021711372)
(486.984550589425 0 -67.6934663783394)
(-70.0710412315442 0 3.17404049594075)
(-67.454473469984 0 4.85259787695041)
(-106.404405782045 0 126.913860987117)
(28.9456491913974 0 530.347608305561)
(-55.9873107980478 0 -372.803488014112)
(5.85978709076849 0 118.739711182383)
(68.9533602432696 0 -51.2013137078276)
(285.689852138696 0 -93.5581442043233)
(-70.6087194391878 0 3.20966541911272)
(-66.4891077668683 0 -4.92267123586767)
(-32.2375534503913 0 75.2250939510917)
(648.792950348114 0 1218.16225131042)
(75.4401209495131 0 -140.130424046107)
(-38.7175001685721 0 -47.8960524741158)
(8.74273194280067 0 -63.2394320323766)
(43.8097419376641 0 -120.87767502932)
(-70.9994749095444 0 3.33478792394097)
(-71.7849902641862 0 -6.77756881921048)
(-77.008951887161 0 -61.0263254448692)
(90.7529516342578 0 498.022264302664)
(76.2583863989423 0 302.729486660771)
(-66.4596497190527 0 -144.119017795521)
(-43.0838673349323 0 -64.019470544226)
(-121.561595824919 0 -81.6634036185737)
(-71.258801164546 0 3.55191997795351)
(-72.350569088795 0 0.136195785675102)
(-99.0551259566196 0 -101.336226718166)
(-163.686277981077 0 -373.925609814022)
(-0.707533889953252 0 121.753151350099)
(-30.8383527922442 0 -78.4270950286578)
(-65.8694404690158 0 -55.6411413162976)
(-172.868983732985 0 -59.4112451779961)
(-71.4766765200836 0 3.76990410349602)
(-68.9838690559315 0 4.3767837190681)
(-67.5612310956242 0 -25.5359269213445)
(-278.742901290339 0 -454.866006937572)
(-98.024613924452 0 -145.200768857921)
(-19.200616313397 0 5.02165411572837)
(-73.3571753020554 0 -52.9981121815635)
(-156.456679265899 0 -27.4672585458877)
(-71.604054401412 0 3.94892018455626)
(-66.2715753932325 0 2.85833774988163)
(-46.3121458221533 0 23.369395272574)
(-158.78027041087 0 -182.875494413425)
(-122.209789177149 0 -138.618996596652)
(-73.612332090429 0 -20.9569225964643)
(-93.5296887379798 0 -59.1557450197179)
(-134.71068842781 0 -50.8728999653662)
(-71.6246389052117 0 4.11267056061298)
(-65.8627636701631 0 -1.10836231365692)
(-42.0847105792022 0 26.88990559141)
(-30.763617978449 0 44.8666086536462)
(-65.0997869198322 0 -38.4463611488925)
(-126.970513152896 0 -68.1495326359067)
(-129.138215878596 0 -72.6866623451771)
(-111.186721112562 0 -10.34939797841)
(-71.5822326816185 0 4.28602827977448)
(-66.3323450811477 0 -3.17433649940163)
(-53.5967518293351 0 -2.96373100919043)
(32.5285878592939 0 117.452232307438)
(-16.7379953180641 0 13.7875540310408)
(-133.66103684902 0 -75.3218669212607)
(-161.569339344114 0 -57.1069492101361)
(-114.226650508544 0 -80.2426349965419)
(-71.5123408221992 0 4.47666177391699)
(-66.1980048976495 0 -1.85350762472088)
(-70.6144625344877 0 -37.5117166886343)
(21.9920544848545 0 42.5039422665866)
(-34.5367124586118 0 61.8645551086297)
(-130.691507241529 0 -57.3067617401038)
(-181.293663544973 0 -75.0598241085947)
(-101.393988729526 0 -43.793582187398)
(-71.4296179005689 0 4.66472759083801)
(-65.3396730816477 0 1.03148919890656)
(-68.4009853162827 0 -38.3914265247803)
(-44.4208415029917 0 -15.0546588290888)
(-73.2054267556325 0 -26.810892666956)
(-113.888321382255 0 -9.06438865089792)
(-154.392667156556 0 -45.2860887710861)
(-61.3158419178244 0 -40.3281189825999)
(-71.3396751808643 0 4.84317315153152)
(-64.2661653578611 0 2.54995239631367)
(-56.984525075701 0 -13.0017725591557)
(-54.0402910332701 0 -51.757814332132)
(-86.4037942300504 0 -56.2951775607094)
(-103.435722699259 0 -35.1660163495509)
(-97.3816176969301 0 -66.8329895961477)
(-46.955218538134 0 -49.6308414746315)
(-71.2419753605486 0 5.02900412071561)
(-63.7751632200471 0 1.55560725739658)
(-49.3241300600731 0 -0.814406812622367)
(-50.3070402809474 0 -31.0803303493952)
(-70.6049345572812 0 -28.7799436157339)
(-96.9056561055051 0 -62.655515556659)
(-67.7431042252167 0 -63.9916342603558)
(-37.264000786884 0 -54.6417677258357)
(-71.1292316445647 0 5.24511574678195)
(-64.1273098074192 0 -0.239340879147954)
(-57.3788351947818 0 -10.8431030925184)
(-34.794839264682 0 0.969322647950761)
(-63.8043313571153 0 -12.4432010193316)
(-79.4756017139091 0 -42.6967457332404)
(-48.7856647600831 0 -60.8672013896914)
(-31.3790618614746 0 -54.6476055981228)
(-70.9957454516603 0 5.4866565607959)
(-64.6496973765022 0 -0.236408898676265)
(-68.2615354544918 0 -25.5053678380493)
(-29.2308811724199 0 4.34278368549252)
(-62.2759955994338 0 -15.8328502951232)
(-65.1311077207483 0 -33.8026193421512)
(-41.1846983666676 0 -61.8610797568126)
(-27.5698729766706 0 -55.2331168387711)
(-70.8459131442496 0 5.72877154471479)
(-64.8086671835013 0 0.752164585108746)
(-66.5592465037104 0 -22.0373507693477)
(-48.5323996193652 0 -13.1257999341389)
(-63.3585731944124 0 -21.672975345106)
(-62.6054340250422 0 -33.3618220279627)
(-36.7439530036597 0 -60.7345376781239)
(-27.5311498253699 0 -63.0985813470089)
(-70.6787282496408 0 5.9781893521094)
(-64.7670335208431 0 1.22175191978232)
(-62.7950823406986 0 -15.1722836776906)
(-50.2935898558336 0 -14.0184946432147)
(-61.8714784982684 0 -24.3176002364311)
(-59.9996093165155 0 -34.4600858280993)
(-33.1322047043743 0 -64.2736392978943)
(-29.5029751546014 0 -62.2371757909725)
(-70.4885304513701 0 6.24880843723158)
(-64.7822602289046 0 1.35562964208709)
(-67.4993412504493 0 -16.8254613920993)
(-50.4279303707021 0 -5.12562255885016)
(-58.9313099301395 0 -24.754076030743)
(-56.8339126406715 0 -35.3271440214732)
(-17.503661562326 0 -60.819428344855)
(-30.7078774485012 0 -61.3238855381373)
(-70.2799585271221 0 6.53324894048188)
(-64.8643319543955 0 1.62110651434752)
(-68.1633845129616 0 -19.7759434681373)
(-52.9705935008637 0 -8.33344183642762)
(-55.8959803610407 0 -25.3977249438686)
(-53.8647765139032 0 -36.0359129489214)
(-4.68178329815668 0 -62.9648556208921)
(-34.8652389101504 0 -62.6413688081677)
(-70.0555236850912 0 6.83681933546929)
(-64.8951739332976 0 2.06467078033903)
(-68.4044562856915 0 -19.676477603468)
(-51.780296982978 0 -9.56011984113568)
(-52.9740098637968 0 -26.3797685532556)
(-51.1970955743239 0 -36.9354403970231)
(-7.12167022350466 0 -62.5300688063101)
(-42.9659868258614 0 -64.2226925536881)
(-69.8163855756816 0 7.1580782703655)
(-64.8430592066777 0 2.58196233125214)
(-67.0203435267562 0 -18.4149424836683)
(-53.1621384347999 0 -9.37897834687468)
(-50.0870840581276 0 -27.0009091505082)
(-49.1992006263064 0 -38.4653527064405)
(-39.6561661748654 0 -79.6381605785596)
(-51.1873439687055 0 -66.3292680654039)
(-69.5623811592314 0 7.5011701077394)
(-64.7321341239726 0 3.13748502863653)
(-67.2757901074125 0 -18.2326675782996)
(-55.7158727590725 0 -8.73854644037408)
(-47.3529371148355 0 -27.5064431614457)
(-47.9988723191254 0 -40.3444774236966)
(-72.2572399814427 0 -74.0214397411957)
(-56.6550023085003 0 -68.0179891417666)
(-69.2955028033603 0 7.86360099162553)
(-64.6041718773905 0 3.72198695369172)
(-65.8541816112974 0 -18.466569235354)
(-56.0729500371004 0 -10.3168485686958)
(-45.2920864513847 0 -27.5934351552742)
(-47.7699605773481 0 -42.0035509087735)
(-90.2999556740889 0 -62.6046267382879)
(-60.1317625970198 0 -69.0136957131331)
(-69.0131491116731 0 8.25164989886496)
(-64.461381624556 0 4.3350164611648)
(-66.4554022165175 0 -18.0448437993744)
(-57.3544278125614 0 -10.8288178885718)
(-43.9756793288353 0 -27.7844288573039)
(-47.9076454678771 0 -42.2462899099726)
(-95.380682406536 0 -68.6522736157005)
(-66.2654922543842 0 -71.4685346465826)
(-68.7177792823902 0 8.65962434069342)
(-64.3038475322748 0 4.96579313209583)
(-64.8039894345629 0 -17.4519071171002)
(-55.4688689023989 0 -11.3857502329479)
(-43.2070285281301 0 -28.094151385764)
(-47.547925799286 0 -40.6341375395914)
(-115.388723108733 0 -61.2077756565979)
(-72.8161711777368 0 -73.1671846537881)
(-68.4074319896294 0 9.09436879165735)
(-64.1195530156375 0 5.61361844072385)
(-65.4162936081005 0 -16.9912431592193)
(-54.3454158010449 0 -11.6683931736312)
(-42.6684946010106 0 -28.6234765767962)
(-45.4469547246255 0 -40.3636071341049)
(-113.243581159258 0 -67.1472920161562)
(-73.3690323800536 0 -74.9867406605244)
(-68.0854580434884 0 9.54793833293709)
(-63.9141204494327 0 6.27404573439365)
(-64.7188972841103 0 -16.4831876191629)
(-53.9123138861385 0 -12.6013453092537)
(-41.7895101598404 0 -28.2614917928951)
(-44.6185816197895 0 -41.1314064645556)
(-62.4068185876745 0 -67.4050595294189)
(-74.8718863420038 0 -79.6928303802537)
(-67.7536382493537 0 10.0222465601771)
(-63.690275866819 0 6.9385607181295)
(-65.4847585835628 0 -15.7667971229084)
(-57.6942370153781 0 -12.2885297303985)
(-40.7114102168012 0 -28.5021526994748)
(-43.8173561874055 0 -42.1701776248326)
(-41.0450337837537 0 -61.6100819440257)
(-73.8591894807421 0 -77.5694729447793)
(-67.4177270864244 0 10.5100709483667)
(-63.4728866831005 0 7.61527157512833)
(-65.4436226724217 0 -14.775995463993)
(-59.1864623518362 0 -12.5969869737478)
(-34.6839085197755 0 -27.6015999187799)
(-43.1519098482058 0 -42.8707681379612)
(-30.9952059786512 0 -67.9390199638333)
(-72.1192647172893 0 -78.8017910024794)
(-67.081443146058 0 11.0113732095517)
(-63.2582489051703 0 8.30153757131446)
(-65.7507370402886 0 -13.6364166387044)
(-59.3842666845922 0 -12.9916154547785)
(-27.6522391402946 0 -29.6674528661773)
(-41.832180735814 0 -44.0870234529207)
(-21.0448609641106 0 -67.2838860321705)
(-64.2934486906079 0 -74.733740588523)
(-66.7480434415489 0 11.5238431346806)
(-63.0445668632967 0 8.98528713168044)
(-65.3564351947911 0 -12.3198448502648)
(-59.2853306610211 0 -13.45116226557)
(-26.138893930773 0 -29.9920367686432)
(-40.6740540781579 0 -44.8786333885823)
(-7.52111095373067 0 -69.2031417167521)
(-55.9780332629584 0 -73.9806961924849)
(-66.4171037498461 0 12.0500078294977)
(-62.8211079109279 0 9.64088339314091)
(-64.5257096396389 0 -10.9608771903146)
(-58.5754747629099 0 -13.557292455512)
(-27.2523340972208 0 -30.3902426584247)
(-40.2052404679233 0 -46.4488057761001)
(6.27973160290602 0 -69.2962874937296)
(-48.8283510180294 0 -67.876223302904)
(-66.083082600498 0 12.5928100727391)
(-62.5904635557508 0 10.2560444122876)
(-63.7280037858575 0 -9.62517955150579)
(-57.0869426526719 0 -12.8566143564947)
(-27.5419858835537 0 -30.5040385360285)
(-40.2511988324963 0 -48.3762568688399)
(0.795256637449775 0 -70.9422317970649)
(-52.7806580754224 0 -67.2202278132927)
(-65.7361749477286 0 13.1538123838004)
(-62.3549047479254 0 10.8314327657355)
(-62.637799716457 0 -8.37449840225731)
(-55.0279830764923 0 -11.6983602471884)
(-28.5886181842517 0 -29.7852179214913)
(-39.8050646646294 0 -49.2840976998396)
(-19.512556040401 0 -76.1104107237003)
(-62.8510209109412 0 -64.5771677282941)
(-65.3567826592755 0 13.7316391685407)
(-62.1415783118547 0 11.3713150260599)
(-61.3619608097363 0 -6.85453548351466)
(-53.1284632848345 0 -10.9947172828382)
(-31.7811849219517 0 -29.3513202365642)
(-40.6858302198119 0 -50.2977672493483)
(-37.1639491994031 0 -76.5487264756238)
(-74.7782304917043 0 -64.4598801545975)
(-64.9083265269386 0 14.3177446143763)
(-61.7710431355549 0 11.9440495272926)
(-62.3094914695923 0 -5.61565769780719)
(-52.2115209939524 0 -11.4263985591291)
(-34.3976883222904 0 -28.9192576763159)
(-41.9363120915991 0 -50.0812499460495)
(-48.847265630513 0 -76.339904961136)
(-83.2552452362083 0 -63.271770053471)
(-64.3481666428417 0 14.8922624615689)
(-61.6297251253514 0 12.420753661591)
(-58.8146762774113 0 -1.59110385724728)
(-51.8331767258315 0 -12.4500259561053)
(-37.6998137750045 0 -29.0208775804066)
(-44.6176766175672 0 -50.0690241425029)
(-54.7337611402314 0 -74.2970693947587)
(-86.3685950282452 0 -61.444151920811)
(-63.5060880553699 0 15.4411353555252)
(-60.5950171227035 0 12.9861740967267)
(-57.7097867398867 0 -1.41051225897353)
(-52.7616538742877 0 -13.1050482546334)
(-40.9778970783987 0 -29.3386260045138)
(-46.7488200662231 0 -49.0140362613874)
(-56.125598808396 0 -71.308801858795)
(-84.5321597059151 0 -58.6388645612903)
(-61.8592754129989 0 15.9026006576032)
(-58.686723848702 0 13.8098881955882)
(-57.6840189751293 0 1.09535685271278)
(-51.1754093672648 0 -11.3448338972923)
(-43.3055977619218 0 -28.4584279975035)
(-48.2839382379685 0 -47.80299750319)
(-54.1631462811325 0 -67.4016395729247)
(-79.0164949569537 0 -55.0627778260874)
(-60.6426055102526 0 16.0890003705203)
(-59.2708697991978 0 14.4891239800471)
(-56.0940503943601 0 2.7761737277205)
(-53.4546369287474 0 -11.3687865376619)
(-48.1867103804508 0 -28.6338462499735)
(-48.5889807934535 0 -46.2211657088112)
(-50.162385183783 0 -63.2244031972408)
(-71.8869406517795 0 -51.4101675313076)
(-59.6432564864332 0 16.1811810324948)
(-57.8128861245186 0 14.8900821141137)
(-57.3442310755909 0 4.40334584920019)
(-53.307188034287 0 -11.3387250981401)
(-49.66774623736 0 -27.7434292477035)
(-47.5566952757579 0 -44.0393586767277)
(-44.8449462846837 0 -58.3338331192974)
(-63.6148833286514 0 -47.3086245077412)
(-58.0985595046798 0 16.1892205063951)
(-56.5139787245573 0 15.5034535685895)
(-54.3399702054053 0 5.60450903730226)
(-54.0828855645197 0 -10.0442910577485)
(-51.5512091647438 0 -26.9808575396359)
(-47.7479449750742 0 -42.1420160769629)
(-41.1467575179989 0 -54.0679397482278)
(-56.0877059608899 0 -43.6015478622872)
(-56.5325444575061 0 16.0196182177831)
(-54.5286668420776 0 15.9410603266606)
(-55.7947608822842 0 7.07655861205529)
(-55.5680212329577 0 -7.97299950587649)
(-53.839699292326 0 -25.8654435589529)
(-48.6556125462599 0 -39.4009154883889)
(-39.2470713717302 0 -49.1373928839558)
(-49.8901417506288 0 -40.0830414619218)
(-55.6400552071973 0 15.6632710025205)
(-54.2238390219465 0 16.1064100287938)
(-53.4663181832036 0 8.10839073501166)
(-54.3532872819097 0 -5.98628178703113)
(-54.6397337432772 0 -24.2840150477832)
(-51.1230387948217 0 -36.9983616298897)
(-41.0850144076197 0 -45.0489395010257)
(-46.961699559713 0 -37.6356531619377)
(-54.6112358730844 0 15.2223311175922)
(-53.5161010450891 0 16.0520208169327)
(-53.0764220417201 0 8.57761474506856)
(-53.1399371096403 0 -4.4254141032811)
(-51.2195382744336 0 -21.5555597660068)
(-49.9567099654293 0 -32.2812922759698)
(-43.4600121125576 0 -39.7095256813607)
(-46.9294872801277 0 -35.8664870594206)
(-53.6491094833262 0 14.6604657748961)
(-53.160153286677 0 15.7070285724262)
(-51.9446871085417 0 8.53688229189958)
(-49.3252199172106 0 -3.46397916622265)
(-47.9904997237299 0 -18.9913828573193)
(-49.2073304057081 0 -27.8973072387567)
(-46.7168130117594 0 -34.338792790742)
(-49.1183704851759 0 -34.8065458299091)
(-52.6325804017135 0 14.0015508726673)
(-52.7240598760824 0 15.128752341925)
(-51.4522040578451 0 7.92586368593952)
(-47.0481841209765 0 -3.28434296436531)
(-44.2788730335098 0 -15.9938763474653)
(-47.4236951582988 0 -22.5642249537036)
(-49.7403077346349 0 -28.5765986132579)
(-51.8870401583043 0 -34.2685621589082)
(-51.5126797014018 0 13.2532707889392)
(-52.0851273652014 0 14.3914131337367)
(-50.9419779829813 0 6.99024826375119)
(-46.1548653212856 0 -4.03137345592412)
(-42.7388019885606 0 -13.7098774103206)
(-46.6119531033911 0 -17.4416573133401)
(-52.4551473001632 0 -22.9303326820526)
(-53.4469007337695 0 -34.4199669028237)
(-50.3025861261693 0 12.4244949550197)
(-51.1993341037031 0 13.5429991669443)
(-50.3790036258346 0 5.84567246192426)
(-46.3094044424618 0 -4.96696297136324)
(-43.5182659347698 0 -11.7760823503092)
(-48.0113380386897 0 -12.7063033620365)
(-55.4655477374366 0 -17.9159768817478)
(-52.5738795705304 0 -35.1485547143301)
(-49.0804322122335 0 11.5237337475654)
(-50.2237290780511 0 12.6150136319458)
(-49.8639999659131 0 4.54324501037696)
(-46.7013634246008 0 -5.86776638885048)
(-45.1284813650846 0 -9.89862761838855)
(-50.7262713322361 0 -8.27631171338714)
(-58.5677807868668 0 -13.8798153850979)
(-50.4624503929463 0 -36.8259187772403)
(-47.8786536239428 0 10.564151628467)
(-49.2146733220468 0 11.6485674623843)
(-49.4864129408329 0 3.13829374355384)
(-47.4509984676224 0 -6.68531327505545)
(-47.2762888897784 0 -8.12868613115267)
(-54.0053329380166 0 -4.38595878073206)
(-61.210879572162 0 -11.2124585994851)
(-49.1989669597632 0 -39.115459352324)
(-46.7065181993572 0 9.55839533021238)
(-48.1858326174989 0 10.7044827424178)
(-49.2496057635412 0 1.79133521282027)
(-48.5074405304618 0 -7.35317758403223)
(-49.8359501336411 0 -6.5973134797504)
(-57.4762817396408 0 -1.46435741753344)
(-63.173021585331 0 -10.2407625771168)
(-54.0076054138687 0 -43.0468688293379)
(-45.5669594920918 0 8.51659296881337)
(-47.1301461255651 0 9.85746923069757)
(-49.0555172713304 0 0.743163615739547)
(-49.7844776442985 0 -7.7219405259484)
(-52.7856453534392 0 -5.40302983181837)
(-61.0851910591018 0 0.121339104760074)
(-64.9084388612836 0 -11.0679465859618)
(-57.8591322707852 0 -46.3329872782816)
(-44.4660897242979 0 7.44486223891583)
(-46.0401427208698 0 9.16755962587149)
(-48.8045048046467 0 0.212940577326052)
(-51.1497403724534 0 -7.56386824899833)
(-55.9760893095248 0 -4.43836130706138)
(-64.7114390470547 0 0.376171442790426)
(-66.6931894366267 0 -13.4794874288421)
(-61.0804106715049 0 -50.1556675249499)
(-43.414492822878 0 6.34579280604526)
(-44.9204952660173 0 8.6530131810744)
(-48.4265769358197 0 0.302450871133827)
(-52.4677589619086 0 -6.69531663451551)
(-59.1706505969851 0 -3.47511198320351)
(-68.1478761911842 0 -0.424941943765296)
(-68.5648412987398 0 -16.9378119330349)
(-63.925987907617 0 -53.6137936468871)
(-42.426970777527 0 5.22209521857348)
(-43.792622569077 0 8.28037538508027)
(-47.8841990554096 0 0.982709717984993)
(-53.6315892699847 0 -5.05937970638049)
(-62.1582113161108 0 -2.31585514295643)
(-71.2190468788301 0 -1.91119752518639)
(-70.5291409116367 0 -20.8536927188721)
(-66.3469488511262 0 -56.2472122994904)
(-41.5214969981648 0 4.08356234415423)
(-42.6891492725572 0 7.97846709674196)
(-47.159954863274 0 2.1303994751368)
(-54.5603689220542 0 -2.73026638752012)
(-64.7753265696769 0 -0.84439599692821)
(-73.8387161923586 0 -3.68193381290212)
(-72.4180702358293 0 -24.5948345717064)
(-68.2243787819514 0 -57.6507254123264)
(-40.7161038894199 0 2.95440311753853)
(-41.6407493366581 0 7.66655047369727)
(-46.2663094678867 0 3.54017720552575)
(-55.2196617917479 0 0.0845374001589601)
(-66.9003748926448 0 0.992786733949843)
(-75.9224288666175 0 -5.25578788948833)
(-74.1107670957958 0 -27.5970533469904)
(-68.9442278185848 0 -57.467093408634)
(-40.0249416066247 0 1.87609060698831)
(-40.6703277529728 0 7.27802811208149)
(-45.2621520120748 0 4.92964958246056)
(-55.6474181919447 0 3.02595521467143)
(-68.4849229708072 0 3.14752682405575)
(-77.3421493731055 0 -6.13627251422796)
(-75.378223469052 0 -29.2586073316192)
(-70.4606592706107 0 -55.8112329655437)