/*--------------------------------*- C++ -*----------------------------------*\
  =========                 |
  \\      /  F ield         | OpenFOAM: The Open Source CFD Toolbox
   \\    /   O peration     | Website:  https://openfoam.org
    \\  /    A nd           | Version:  6
     \\/     M anipulation  |
\*---------------------------------------------------------------------------*/
FoamFile
{
    version     2.0;
    format      ascii;
    class       volScalarField;
    location    "0.0052";
    object      ddt0(rho,e);
}
// * * * * * * * * * * * * * * * * * * * * * * * * * * * * * * * * * * * * * //

dimensions      [1 -1 -3 0 0 0 0];

internalField   nonuniform List<scalar> 
18800
(
352252.695653467
409625.306439264
163776.969488683
627907.737821389
-1007184.42311892
-1833362.69115746
-2497065.52754368
-817244.985711403
351290.443189642
410190.59127163
168477.486405381
587725.447158085
-1010012.1339927
-1834280.96891014
-2466153.11273883
-950703.834194925
348676.923195514
409510.950221857
176106.113221722
529786.584114293
-1011359.17382575
-1828291.50749221
-2490764.14806358
-1266768.46454663
349316.616318366
408953.967508565
195688.118223434
421355.10213927
-1011783.43953208
-1812323.84082843
-2457368.76958254
-1621176.59191438
347602.480438025
407259.261513722
222391.937489489
283626.744239529
-1007514.8065434
-1788764.13888564
-2437419.78099958
-1905957.25967912
340366.460714743
407376.840589969
259244.295884373
100973.554703627
-997931.866803437
-1761309.16240075
-2308419.5915683
-2013597.22044952
336660.632720155
408391.84314084
302096.387594609
-105343.255138987
-986782.662295817
-1725184.59636828
-2231697.53933408
-1963609.21627584
321920.239087847
413264.704841732
349614.788712959
-321872.405633445
-970421.084121823
-1682025.37666273
-2106975.81986852
-1869928.33128329
331235.226584339
417522.561887097
396711.433235651
-524907.959582429
-947831.662245451
-1636795.31171643
-1982802.10467437
-2071841.36628017
311425.175833049
423271.211726848
440501.057338964
-696066.751804404
-916961.955609271
-1584806.49503238
-1981585.24021285
-2364619.51845144
396438.627902701
421027.787572376
474084.539528225
-821040.602406249
-877815.972504698
-1527486.83051764
-1971689.16005387
-4048632.99117438
408672.690041633
414074.647097912
487664.389429972
-890085.44379835
-831405.654782016
-1466690.53840749
-1956798.78945135
-4130480.6289194
335628.439608008
387201.662038037
475736.447024679
-893198.015278194
-779519.586902997
-1399728.6561417
-1880090.32076816
-3383568.65015103
315865.592337628
350332.652930707
437609.298003003
-812080.371361777
-722639.864646232
-1324984.09145437
-1810162.15168295
-2994308.70188441
294981.481615413
289509.140842465
370821.05241624
-676809.627892432
-659071.789828467
-1241336.21006631
-1720526.39432781
-2817044.12398386
286780.533212105
227757.453583457
274318.96755304
-372610.896864214
-584879.872798283
-1149431.71813925
-1643608.75512116
-2736252.93194092
279129.743056852
158595.598284
160936.246958808
-95351.7579946019
-493502.058280364
-1050929.70502438
-1578111.04126429
-2666686.35096909
273938.280433576
115127.551792129
25859.3030938179
459085.13084918
-391678.174323479
-949261.196537671
-1527746.77706072
-2573618.42366921
273517.057560835
109331.192050556
-71393.2366950348
764184.113165982
-271980.988024971
-849299.370352663
-1467272.80355162
-2449484.49432002
276311.598165665
101300.120454935
-134337.536011549
976095.530557367
-182824.616848167
-755080.108059261
-1399721.36741438
-2306858.87364613
287797.51658185
128258.706754178
-132395.521952628
1464105.8503439
-103278.909360836
-677210.837531614
-1316758.91449696
-2173143.79220418
305485.919433875
163523.099981594
-103974.247315672
-100626.034737713
-49150.6672776713
-603589.86930373
-1220856.7829395
-2062315.85943714
323404.825626821
212448.154843169
-58947.0147103629
1459324.39505295
-154126.107415101
-560700.750525989
-1108578.17984243
-1965426.63667214
338442.611498764
269088.573779902
9032.41428095424
-1305903.52113357
102271.695236795
-503179.264944735
-988551.244251327
-1864288.40920782
349332.367864471
318741.984698973
243481.651997412
-733358.7389513
-297664.486952161
-450410.534283032
-867098.063050298
-1713476.65562015
336252.974332478
349737.918035051
326914.187371959
1141044.15750051
-52436.0207041633
-454595.59528823
-746133.811288589
-1481065.19177737
337300.720997611
376546.60415099
229360.153872088
-4561882.93240979
170171.236578139
-272371.649730267
-674457.105655631
-1211486.75945623
317765.84692814
373147.336712172
249284.580453811
2574983.89493775
-1249744.38148324
-329429.576495279
-571959.635060198
-991194.862123413
308745.187107359
374037.24113762
69658.0923886657
-643687.497354405
939879.233944493
-241042.756662984
-531659.061065481
-939781.71627319
298997.433963628
273455.191487492
92854.59981153
-1171004.97305983
-170909.087562809
191306.480261815
-493693.569748194
-978852.175542914
294161.726510935
204553.487777551
-22594.3558980866
6101556.8778595
-851583.741242911
-469921.68521083
-362023.888648074
-998862.147967458
291637.404127919
173608.124193737
-258118.220387912
-2812172.54630266
1662103.56623395
-137392.744409138
-408140.446445766
-1003448.17407768
295239.608587281
108289.411507965
26894.5228851865
178290.002314504
-480796.082510631
96351.5928857096
-404257.936772575
-898927.38531646
294552.903133414
170245.282966333
128737.960490302
3500027.04476227
-563061.388577795
-563590.462648355
-227963.930473471
-639087.206873248
293248.083134123
225905.083672184
164750.758112061
-9400427.69672723
682593.058589809
-294978.110201476
-237669.947252809
-251593.056861593
291588.891145223
187025.981769662
488218.998457193
1116541.19874777
-919100.358818908
132940.125072043
-239127.334707042
209440.121471166
290740.450078198
159786.222924949
422617.004132164
7864918.38809985
-524800.619783666
-334177.560825165
-211983.167738439
583130.561312962
291028.297973497
196856.915080188
-114736.295894151
990920.953072712
1286765.1255051
-656420.601893831
-211242.225270769
755824.418184225
291845.449632535
238087.8545886
-313291.358345157
-2474355.81457588
680769.822814604
-175829.380505708
-192256.26061827
409722.981135714
292751.498931643
246716.074743786
-22366.3177576462
-2149699.85706192
-592657.501737599
249153.859643936
-167311.255437794
297553.356380745
293542.191581515
227944.012914721
274658.597428984
-656637.975226621
-641477.192477853
-127003.059873866
-165247.473951307
209485.751633729
294060.122874111
206456.215757264
327650.580739164
392046.553237701
-252885.281063843
-327167.076229875
-207470.593446926
218711.256224289
294401.724532564
201798.798655823
158945.673632478
714321.949243104
249750.297828559
-340097.308337022
-162683.594626268
109212.99549811
294737.635221541
215484.971624258
-18986.6890008808
517351.903123461
457915.160381111
-159129.469352439
-170528.035714185
141705.21752083
295076.967921658
232809.223737191
-34954.0162557195
-23246.2500104443
84548.1210268337
86013.3113345322
-156861.461487297
238952.358487856
295327.956455478
236310.421124446
94781.9494203437
-142246.642463494
-66425.1398289014
17106.6339216929
-143953.287588533
184203.768343817
295508.863977977
225222.920791812
199399.550166715
9552.48989795899
29142.8674243769
-168717.968811762
-137828.070892503
159101.290423705
295734.678060625
215668.317870626
146198.299863774
170960.810914328
61206.0793144659
-86135.0756729479
-112051.037403504
157465.882238743
296067.189655015
220523.701279557
62647.1279697794
169313.994048722
18213.8515621672
-48396.7141875604
-85915.0277592455
155878.148197877
296498.857081648
227624.734222402
82686.1205025754
21657.6073263037
-22026.9752877338
-47722.1448376742
-71700.5276198339
165213.641577056
296961.571304963
231848.506757502
129071.076785043
31276.7945162854
-39488.5296926908
-55102.1341847871
-60594.9736752295
162649.180624247
297475.278102362
235020.684491669
125955.375052773
74597.6437144087
-47097.6315654358
-52792.4769351038
-48737.5031187163
154733.402866002
298107.960783491
238681.836414227
114471.964484422
61576.4929326708
-55331.4454112416
-51127.345852688
-37255.2073394844
147303.203844713
298818.411345511
242859.649404636
120248.741849288
49975.8447811415
-62714.6761701744
-49847.5413601262
-35211.0487603794
136144.288202312
299609.741986021
247002.156025865
132057.99051304
49817.9406297958
-66175.7325621776
-52488.8796432044
-77216.9037982497
120979.077571872
300471.067641163
251155.694543532
137048.317304574
47677.2476994147
-66857.3226365885
-58469.2846447823
-123592.39048499
100414.665094658
301420.098887179
255224.659108884
138610.076435458
42118.1567600644
-66544.48228127
-69272.3173436266
-131085.408321736
76886.7438250291
302422.851789012
259396.569055473
142997.448686743
39178.8438888851
-62508.8752749751
-83797.8096268135
-117009.283212539
52960.9149037829
303514.271005152
263536.541502497
148053.346899742
41174.3380466832
-54153.6287469826
-93427.1915551553
-109978.030840142
42465.5231519625
304639.319558344
267974.275383608
152098.357398272
44147.9893102241
-44284.046413284
-99845.2701823276
-162404.971378489
61726.490394115
305814.580532934
272508.446307485
156228.512212927
54532.2497881917
-38495.4081851599
-95873.8930367536
-66473.8082292926
66269.2104082644
306974.230993237
277334.072089741
160859.964596585
61100.6686024205
-30071.8430324926
-90202.398674216
-60805.1513962158
73625.8579870618
308104.044016351
282259.639411147
165895.183980361
66048.8834179042
-24798.4707877377
-83168.0479864353
-43283.3090377882
83432.0244161275
309135.311745179
287285.999413255
171271.936440317
71326.453185296
-20781.3600265743
-75227.6558619054
-35901.4274754466
92606.5464694593
310018.693969636
292217.752659785
176902.237762699
75720.1027220431
-14118.987464248
-66454.7298919589
-27212.3091915307
105173.26216894
310674.032652174
297045.153969832
182703.508856641
84897.4198244367
-8238.98915870337
-56167.8222164214
-31480.06982918
115957.346443667
311015.824562837
301727.058187779
188476.708580548
101250.064795121
4305.55488674999
-45237.1978413516
-40549.1681568208
120774.372663797
310980.476037682
306084.99986862
194028.165555932
120979.472043068
20913.0288714382
-31738.4406360666
-37951.2173907269
112606.948518338
310550.173742952
309686.917071594
200838.527009852
137319.0306836
39657.3198956555
-16457.937395087
-38734.8003449466
104447.210721189
309837.917998113
312567.513528453
206477.649051249
145743.416222459
56979.4678532915
1022.83465798817
-31321.7814282672
93534.8602949347
309005.926053801
312529.64949052
216890.164520408
152671.464156197
73747.9226537574
20747.3656100353
-20815.8205039592
86565.0024437492
308106.361423631
314390.076700663
229904.284038048
158015.858424331
90498.5660543238
41643.5873924963
-5946.98872937919
82887.7153734632
307101.534423766
313438.370282868
240098.130655945
177095.248563252
112905.566627401
64994.4976932624
11017.495901181
82547.3837028949
304333.975704629
308239.439167411
251400.850880927
153593.11621267
134961.407784378
87683.2112054234
27973.5138642851
83965.3512259291
300951.905243093
309258.0472436
263046.96481459
174103.080682249
160360.123258357
111690.717024778
44355.9253337922
86880.9664243938
297107.204879687
308963.281196584
276680.874276181
205055.994347171
188261.686926611
135459.444416107
58792.7306364995
90977.8529585114
292773.456520363
308715.807590477
289001.07767655
235411.344682721
217205.303532573
159431.359475094
72110.6932850168
96065.52357657
287891.374238478
307108.807665407
300971.082456854
266998.805948184
246731.856554711
182923.645538062
84906.7570876001
102483.722435044
282290.597650427
304783.896831514
310971.68825089
294647.791558711
276582.158003939
206282.698232809
97888.9021714494
111026.616278215
276316.539223916
301516.173843787
318906.24483183
325072.800429877
306133.435113887
229542.385649789
112789.304892677
123322.665734725
269998.473361079
297673.931408204
325345.307114524
343199.157406245
329632.231852822
248323.140010741
128033.74806095
139319.492739011
263556.064499797
293577.940207665
330443.797459309
357197.878001819
348108.675710437
264324.983211742
144867.557378893
159905.911191427
257175.361985863
289585.9871138
334139.31500564
366634.74589335
359991.961660756
276592.455350593
163946.788201522
185124.515253012
251011.676399389
285831.15376367
335845.471032344
372070.294328686
366567.472235997
286555.146314185
186082.911564476
213602.920871539
245166.845596374
282327.237911651
335197.723054038
373293.093389774
368382.744861225
295020.325208881
210778.514152108
243724.336759001
239706.540687578
279097.219329515
332368.521710719
370370.257559938
365664.069661684
301936.584818763
236482.557553571
272687.1290072
234647.559908739
276138.489339459
328115.306049293
364344.300935798
359490.128382394
307745.008812737
261423.61235449
296049.229308985
229945.694476891
273313.533187755
323239.714652339
357049.782779264
352298.68475193
314206.201746342
286300.87626346
319442.008421729
225491.430011422
270243.154315073
318076.224644762
350465.047825892
347466.021477474
324197.942321972
312531.925043414
340446.736156353
221126.826391413
266319.458549926
312451.090346335
346148.523051443
348193.824944984
340400.884598767
341331.585770802
359936.841123182
216687.304794801
260852.222517243
305923.961586701
345080.020480061
356865.237325104
364751.03348434
373569.435090073
378078.023710145
212059.226449293
253287.576314495
297889.0184519
347512.363172052
374815.208388446
398479.711123758
409765.394283434
395669.951950369
207215.850600605
243389.608329784
287606.095120717
352737.120859918
401959.015213639
441759.185430169
450124.115223729
413862.392160515
202218.820707135
231315.447398719
274550.953695431
359267.663813362
436413.751469412
493023.538207187
493481.512914421
432234.785994553
197199.632344593
217612.523129637
258984.95540356
365556.356957884
474533.932767041
548350.575256106
537834.752597673
450955.194954659
192344.717453536
203174.276034588
242140.003249332
370653.637932202
511679.673085744
601876.724191979
580059.682358441
469994.114696366
187882.218583171
189108.493822808
225693.899132372
374415.311413642
543947.302360335
647877.781959934
616608.964014989
488759.26018557
184061.797836674
176641.208312739
211172.651052197
377192.132253489
569541.843295036
683160.039875965
644671.795002353
505552.108936301
181243.993834445
166889.679281743
199789.691199435
379490.819710049
588658.83482672
708044.883646907
664008.925094505
518956.830333667
179450.301907578
160557.636727578
191195.921619553
380614.081281868
602394.468721781
724840.591235502
674633.580135412
525236.81457888
-3546070.16887236
-19477065.507542
-6885710.05726515
-4045654.33362368
-3401757.50270753
-3103525.64864127
-2959282.46843851
-3009524.54531058
-3308863.09548904
-3960802.92036685
-5125671.37930506
-6679957.07488745
-8373908.44642933
-9907986.10143237
-10723487.3317638
-10543381.2921825
-9551810.89719252
-8211504.11517942
-6824527.41831286
-5897313.47002099
-5444519.50050475
-5395344.26941291
-5533133.20993312
-5733333.75788304
-5826789.87218361
-5885781.26986963
-6031940.50150715
-6234660.97196358
-6268171.20812255
-6134991.44237476
-3278127.34014225
-16001912.8945012
-6637867.1458087
-4035875.40275666
-3400121.15235751
-3102505.10590695
-2958320.46467677
-3007467.83264754
-3307174.5775076
-3961209.11264036
-5121514.89106513
-6680646.75171596
-8377351.43222025
-9915617.64321406
-10731960.4240027
-10551962.9823164
-9558562.21353929
-8216293.70403522
-6827891.25871427
-5900561.50521005
-5448736.06596065
-5401115.90208843
-5540352.02810267
-5741769.54720485
-5836152.70279115
-5895920.26005429
-6042956.4872216
-6246974.1280515
-6285455.88527675
-6114220.26854574
-2739297.52126529
-9455960.84602943
-6107579.20249841
-4007758.15018261
-3389894.32735091
-3093284.85077616
-2949145.93828647
-2995980.90493897
-3295959.12159923
-3953414.59164641
-5106223.79962766
-6670664.50506161
-8375646.09659553
-9919126.20143534
-10741043.7986007
-10561216.0974215
-9564790.0789174
-8219000.71443061
-6827542.09632878
-5899115.48251362
-5447959.37679066
-5402632.2714585
-5544642.84277603
-5748823.39532115
-5845225.00164487
-5906674.79855715
-6055153.21859452
-6261613.70110645
-6308028.63945718
-6067989.11342397
-2330659.33519841
-5999483.15192307
-5481825.23591314
-3959109.51492497
-3365825.22639303
-3069604.33673707
-2924440.12122395
-2967759.68038839
-3269439.82783652
-3930631.63657811
-5075595.84779034
-6648688.87680975
-8360546.92404455
-9912178.8987618
-10736945.6117877
-10557365.4757547
-9557489.68931806
-8207872.92622797
-6813584.08332487
-5884579.48282742
-5434949.34618667
-5392533.6236657
-5537565.881642
-5744449.34095138
-5842905.03591989
-5905864.48714358
-6055186.98352457
-6264691.735154
-6318435.12606316
-6012171.96955568
-2052655.25022394
-2147495.05899854
-4864791.18634579
-3895039.58590203
-3328741.2565766
-3033118.38996576
-2885946.81399204
-2926011.51822364
-3231004.2588313
-3893728.06112274
-5033613.56554024
-6612995.75094684
-8333841.07307516
-9891348.16309748
-10720052.5173029
-10540239.5754977
-9537059.69027093
-8183877.28805696
-6787032.83189305
-5857478.30854891
-5409258.66727779
-5369669.84797825
-5517754.99353425
-5727438.43485109
-5828019.18828359
-5892452.51743498
-6042236.92168858
-6255017.2939389
-6317503.8981994
-5953887.24457192
-2026160.96968687
-1306538.16722177
-4405794.42400918
-3821587.69875869
-3281362.63309345
-2987080.73813368
-2837256.36754122
-2874227.08659594
-3184046.74497165
-3847123.50703335
-4983185.44925798
-6569416.66935564
-8297630.76464736
-9860821.03667977
-10691975.7378038
-10511739.9841653
-9505464.64972619
-8149176.72770829
-6750442.52673752
-5820736.55143071
-5374160.76192233
-5337362.26604093
-5488289.0761135
-5700491.99135817
-5803046.53729323
-5868761.08110492
-6018782.92014319
-6234898.54323073
-6307549.48935362
-5896012.65459406
-2422839.43585451
-851507.644397568
-4067981.4761241
-3741746.60813539
-3225196.31844507
-2933530.09479956
-2781307.25461853
-2815636.50685544
-3130237.49201282
-3793003.71105251
-4927107.71582725
-6518686.97008966
-8254314.77452327
-9822046.15058382
-10655438.4712344
-10474551.0501671
-9465356.65243037
-8106331.51253132
-6706133.19848321
-5776420.9222341
-5331454.03658955
-5297306.25213121
-5450904.86461171
-5665482.2442558
-5769923.35333764
-5836827.98721681
-5986998.06586775
-6206486.72501679
-6290123.22826363
-5839811.07864556
-3229653.55951008
-920091.730066291
-3840174.79741662
-3656437.26912955
-3160510.74680286
-2872857.42846382
-2719104.82302492
-2751600.3943952
-3070049.67170123
-3732617.59257588
-4866022.04739469
-6461798.31218503
-8204472.32691578
-9776194.24645654
-10611256.0608518
-10429599.7097262
-9417614.51134805
-8056180.07498975
-6654937.22789241
-5725375.90247211
-5282025.79580028
-5250413.48659547
-5406496.15047067
-5623263.95422641
-5729487.42836432
-5797488.39668092
-5947739.90678219
-6170584.51007918
-6266158.02902915
-5786136.20598043
-4354071.81202529
-1823438.85543588
-3714525.74398784
-3566316.00099427
-3087224.15734298
-2804843.46115087
-2650806.04314479
-2682338.14197256
-3003620.12930698
-3666258.65846244
-4800209.83660632
-6398487.79629965
-8148288.7953094
-9723406.23731798
-10559836.5754645
-10377323.0286619
-9362652.85008238
-7999095.23038881
-6597157.76446139
-5667837.28883059
-5226060.62012716
-5196858.03818717
-5355253.60632011
-5574054.43999651
-5681977.46757269
-5751005.63901922
-5901280.50452209
-6127359.92850261
-6235182.3045051
-5735421.88814076
-5617534.30959509
-2873516.32467566
-3664657.93466853
-3471042.13143318
-3006195.62863703
-2729711.08924733
-2576180.8638895
-2607410.52466814
-2930947.83962058
-3593976.91973428
-4729727.96922663
-6328496.58277311
-8085633.13167084
-9663720.66116439
-10501218.4590091
-10317809.3362303
-9300548.05815851
-7935136.8994526
-6532840.52163963
-5603831.50984122
-5163578.31955141
-5136660.91627836
-5297197.6745358
-5517863.80284265
-5627410.87926897
-5697404.61218436
-5847641.84494794
-6076812.95870334
-6196712.91866453
-5687259.97143387
-5549258.81453299
-3117394.74400416
-3630924.6000495
-3368879.92223447
-2917996.36525706
-2647564.02309346
-2495068.0942988
-2526466.73083703
-2851956.83936207
-3515684.38655432
-4654500.16028442
-6251464.38986731
-8016320.03905025
-9597010.17061407
-10435355.093583
-10251046.6743176
-9231284.33927632
-7864277.76361009
-6461940.90610938
-5533286.47107299
-5094488.17899126
-5069725.12969571
-5232232.64408837
-5454591.02991175
-5565694.20721084
-5636599.53768431
-5786734.16047424
-6018761.09980599
-6150539.24753758
-5640078.30852945
-5635954.24097665
-3574340.00708041
-3576260.18155079
-3257590.59596634
-2822479.06563292
-2558230.13843588
-2407551.29001796
-2439267.69968948
-2766529.85804247
-3431270.55601135
-4574291.28097625
-6167133.5727581
-7940135.7067772
-9523122.14049813
-10362136.3239732
-10176960.7231683
-9154786.28663281
-7786437.02264454
-6384371.68549232
-5456095.73322188
-5018671.84172521
-4995925.01529691
-5160229.16143739
-5384097.24977768
-5496688.41989089
-5568454.21536091
-5718416.51280517
-5952983.98784431
-6096315.16152133
-5591649.88580653
-5690885.54413096
-3987679.60746689
-3496895.74308318
-3137062.98132809
-2719398.12834205
-2461508.72063323
-2313730.58925627
-2345609.61946894
-2674522.7161135
-3340591.60902057
-4488630.39132109
-6075401.7943365
-7856884.70101467
-9441868.46836238
-10281425.3745376
-10095446.3843423
-9070948.75605459
-7701506.25479731
-6300019.79294866
-5372128.18317719
-4935985.43350452
-4915108.1717971
-5081027.87253004
-5306215.95969338
-5420223.83048349
-5492800.05816128
-5642515.45293134
-5879233.82829743
-6033650.40257854
-5539926.25445831
-5319313.96532176
-4137925.20343809
-3398828.08774865
-3008558.74370481
-2608478.76965089
-2357184.29484628
-2213695.61408337
-2245295.49356628
-2575775.00230872
-3243477.51538543
-4396749.44929283
-5976409.26493257
-7766407.97979369
-9353044.58226493
-10193064.3733531
-10006376.1490154
-8979643.9278799
-7609355.78959087
-6208753.8862884
-5281237.11378234
-4846272.21379755
-4827108.97434312
-4994449.70110486
-5220762.86657238
-5336111.65193593
-5409447.69098167
-5558837.45939955
-5797259.84307935
-5962084.53561008
-5483324.81858821
-4419126.66938433
-3986366.13794009
-3273476.84504708
-2872439.13299548
-2489532.01379168
-2245049.25693616
-2107493.40909664
-2138116.25827258
-2470118.30609586
-3139721.49179391
-4297573.51453964
-5870575.3214168
-7668595.78588718
-9256430.20786555
-10096882.1418696
-9909605.61367178
-8880727.36538593
-7509839.70443
-6110426.91739652
-5183262.18090791
-4749364.22297769
-4731750.5994534
-4900304.26479292
-5127541.11326909
-5244149.81639733
-5318193.43811677
-5467174.99264665
-5706811.30436467
-5881272.73387151
-5420761.9294028
-3761302.01746728
-3575812.92203866
-3114531.29154807
-2728479.46494358
-2362468.24174064
-2124934.96410767
-1995033.27406072
-2023843.87377973
-2357385.85724945
-3029072.31520692
-4189843.02885454
-5758543.9181913
-7563375.81596574
-9151794.94400045
-9992697.56278281
-9804978.80297464
-8774040.61501783
-7402798.3494894
-6004878.62581418
-5078032.41705399
-4645085.53619252
-4628849.20634104
-4798398.86429389
-5026346.26167126
-5144127.84660203
-5218824.45183142
-5367312.24520668
-5607639.37621956
-5790853.3767803
-5351159.98738527
-3329193.00503539
-3153415.66184736
-2932080.64519338
-2576026.4389413
-2227297.00303299
-1996566.36898994
-1876165.25439231
-1902231.5783408
-2237419.84649801
-2911240.06155694
-4072393.66739396
-5640983.11248505
-7450674.72181267
-9038904.51573474
-9880325.4222237
-9692329.80149376
-8659414.7316111
-7288060.36428543
-5891937.18564938
-4965367.29233998
-4533254.53559325
-4518216.63628591
-4688539.11465785
-4916969.81461443
-5035830.75242702
-5111123.95220397
-5259029.91254348
-5499501.93741568
-5690350.53197378
-5273680.17113456
-2878741.58266088
-2892209.55062878
-2739294.75096922
-2414860.60893589
-2084066.50706535
-1859771.61243429
-1750693.11757857
-1773027.34562359
-2110070.56132805
-2785947.81492968
-3944523.0191825
-5518257.00758559
-7330354.69921817
-8917529.92385148
-9759580.84111775
-9571486.70838377
-8536672.58557313
-7165445.63986368
-5771420.41185411
-4845079.02617417
-4413686.17053536
-4399663.22474605
-4570530.56991586
-4799202.94964417
-4919042.8804868
-4994874.40331076
-5142109.60617193
-5382172.25223701
-5579559.11592341
-5187646.33023782
-2451708.17910085
-2714543.3425863
-2539476.67640518
-2245071.54670552
-1932681.33520383
-1714996.72904294
-1618292.09363944
-1636011.33624281
-1975189.81632671
-2653005.61524773
-3806283.81992576
-5390095.67752016
-7202155.66150673
-8787458.99276057
-9630284.27737206
-9442274.11724949
-8405631.82077681
-7034767.18503874
-5643137.6449568
-4716973.48864095
-4286193.66424209
-4272999.77852167
-4444180.84654961
-4672839.25046381
-4793551.43232689
-4869862.30608476
-5016337.91827524
-5255447.66835498
-5458380.92239446
-5092567.80417087
-2312830.79542641
-2512525.26473228
-2329634.85878773
-2066938.71742297
-1772966.4099627
-1562909.48396728
-1478545.95166502
-1491068.88496896
-1832643.91267269
-2512313.17226495
-3658546.99337873
-5255463.43578084
-7065679.49334365
-8648503.70752277
-9492264.66162536
-9304515.89518911
-8266107.50711382
-6895833.31458707
-5506890.48716803
-4580852.03435945
-4150590.49894189
-4138040.12018027
-4309302.64161378
-4537678.31585877
-4659150.21845527
-4735881.85593113
-4881510.37438051
-5119144.63905655
-5326664.13353595
-4987108.19624784
-2260131.98085824
-2262973.48457896
-2109075.11388375
-1881023.89151422
-1604897.2194855
-1403592.16609454
-1331070.65467721
-1338290.96660033
-1682337.55490406
-2363829.94503864
-3502698.44661497
-5112755.9971383
-6920442.68690108
-8500504.67189667
-9345362.43207471
-9158038.43920769
-8117915.72525217
-6748450.8091863
-5362475.01524576
-4436512.99294631
-4006692.50907927
-3994598.54865495
-4165716.49870412
-4393529.08526974
-4515642.62653153
-4592738.33127441
-4737436.24661256
-4973118.78139243
-5184241.83461869
-4872237.88481612
-2045336.91482832
-2015903.76819536
-1884505.69836234
-1687722.84823082
-1428524.31993093
-1236667.91175861
-1175452.61441407
-1178042.07537774
-1524229.82272717
-2207440.89886
-3340179.57602985
-4960277.01604048
-6765982.26026184
-8343328.37121034
-9189430.61230038
-9002674.05587151
-7960876.2533846
-6592426.35050385
-5209683.03698653
-4283752.98445022
-3854320.10570476
-3842489.43960514
-4013252.71891997
-4240213.02736834
-4362845.81469953
-4440253.03440502
-4583942.11154154
-4817261.0314998
-5030967.01473614
-4746644.39591239
-1892228.74233138
-1877791.0603407
-1664073.31926544
-1487197.86347636
-1244018.23887045
-1061760.80681914
-1011255.20890867
-1010912.7321093
-1358330.37302777
-2042972.17085427
-3171875.82687091
-4796809.36529507
-6601962.86812108
-8176861.71628747
-9024336.35577351
-8838264.16690661
-7794816.71530387
-6427570.59829622
-5048303.80069367
-4122369.11674289
-3693299.50724396
-3681535.62850521
-3851754.67072708
-4077567.25888811
-4200593.45145008
-4278266.15801195
-4420876.04773569
-4651482.76954068
-4866770.27333169
-4609747.80447766
-1947311.12501198
-1792845.40078759
-1441448.89336445
-1280685.93250751
-1051910.08523457
-878624.812724642
-838127.67123345
-837527.456910584
-1184677.15704412
-1870381.41451036
-2997378.92571428
-4622245.923858
-6428233.02014347
-8001008.93944309
-8849965.10203346
-8664664.36112947
-7619576.96539352
-6253701.17904334
-4878126.88723388
-3952161.11015748
-3523465.37236853
-3511575.93096332
-3681082.32704183
-3905447.57932587
-4028739.79292734
-4106641.49919275
-4248111.82296885
-4475720.57628399
-4691640.59378362
-4460709.42369301
-1931530.40994291
-1512956.02616126
-1198594.31163956
-1070664.87283198
-852952.04791984
-687287.096030489
-655963.738901987
-658324.014770908
-1003301.90737811
-1689761.38401948
-2815132.23011635
-4437586.01370534
-6244797.24631166
-7815694.92954306
-8666224.49635828
-8481748.16392951
-7435013.62520048
-6070646.72914632
-4698944.98471535
-3772934.10120094
-3344662.1858592
-3332465.97029937
-3501114.81796436
-3723732.54533352
-3847163.17138403
-3925269.73396082
-4065552.61023284
-4289936.36536593
-4505607.17630898
-4298333.12188241
-1683354.26352714
-949131.331233101
-934388.019365178
-858722.165702611
-647858.215110948
-488102.335031977
-464995.637631075
-473473.623769056
-814194.582113453
-1500935.28547202
-2624422.06896255
-4243490.42863265
-6051721.54491582
-7620878.42090869
-8473052.50165851
-8289412.57838125
-7241005.92817198
-5878251.71813495
-4510557.84317971
-3584501.91485398
-3156747.90907791
-3144076.95668948
-3311753.3915291
-3532326.26822828
-3655770.09570087
-3734073.19859558
-3873135.75119975
-4094119.21658187
-4308783.96430836
-4122028.57771326
-1306412.71027146
-370006.704181136
-676455.504427374
-644333.264696466
-437343.952103446
-281733.329125256
-265785.418943273
-282979.857775069
-617288.63856015
-1303589.77711339
-2425715.04506445
-4039948.43073376
-5849010.69138841
-7416566.50982344
-8270422.89740509
-8087583.65456415
-7037461.49040977
-5676380.96724882
-4312776.58530097
-3386691.48645724
-2959595.92740782
-2946298.67134585
-3112923.60026554
-3331162.99496293
-3454498.91028456
-3533009.45515438
-3670836.72042136
-3888288.17559196
-4101011.08653226
-3930412.45319899
-826410.737340689
-92766.8725531331
-453497.180208521
-426861.63885147
-222328.671267372
-69088.7057631455
-59158.3468916208
-86840.7175038112
-412477.638863748
-1097692.69375862
-2218718.20615925
-3827819.90757757
-5636581.70327667
-7202828.03038241
-8058349.56238503
-7876222.52829023
-6824323.36842482
-5464926.56994307
-4105429.77753326
-3179347.98913105
-2753098.48327872
-2739042.09980422
-2904578.96619344
-3120210.34391272
-3243324.32132058
-3322075.39689849
-3458672.89963138
-3672499.9637712
-3882292.4091365
-3721324.67355559
-513536.286343723
-133022.502580478
-266568.595658584
-207787.818307018
-4142.93936126024
148724.005460269
153873.638795579
114836.745741463
-199680.054234267
-883466.898362957
-2003641.46374681
-3607663.68507493
-5414253.62203629
-6979810.80688015
-7836887.26111457
-7655332.55013308
-6601578.15203588
-5243814.43333632
-3888370.88934838
-2962341.22599325
-2537170.20522706
-2522243.59767071
-2686703.15511232
-2899473.5224347
-3022261.14109784
-3101311.21650757