/*--------------------------------*- C++ -*----------------------------------*\
  =========                 |
  \\      /  F ield         | OpenFOAM: The Open Source CFD Toolbox
   \\    /   O peration     | Website:  https://openfoam.org
    \\  /    A nd           | Version:  6
     \\/     M anipulation  |
\*---------------------------------------------------------------------------*/
FoamFile
{
    version     2.0;
    format      ascii;
    class       volScalarField;
    location    "0.0052";
    object      ddt0(rho,epsilon);
}
// * * * * * * * * * * * * * * * * * * * * * * * * * * * * * * * * * * * * * //

dimensions      [1 -1 -4 0 0 0 0];

internalField   nonuniform List<scalar> 
18800
(
-176808111.440868
-372641385.846955
-302784112.514689
-11710427.2926883
-61270265.5147843
93965863.8296016
133889070.820708
26530780.7131244
-270828625.95263
-360379847.505159
-226065921.821654
26456070.5969492
41207016.4667201
133425772.062072
192795524.190443
31236653.6599109
-187006842.970598
-325749065.406523
-201468912.65046
13463462.8489003
48374615.4477351
136140262.246892
156108600.202658
49565188.2902721
-114118176.4683
-280395724.493938
-183643836.195924
-13119751.6088103
32128416.1854468
119616773.195716
99996158.4350805
65526912.9696683
-66340745.3502865
-237291946.217741
-169289159.378941
-37740062.5381107
12482012.4957498
100034606.266369
47879190.3240062
78474369.7001751
-36736921.2894417
-199214822.06099
-156234482.180009
-58248952.4476016
-5629302.52413988
82938202.4142027
18304124.4785429
-14477122.3442998
-18774107.3647783
-165988596.757539
-143081483.256563
-73671476.8745241
-21469826.384336
67750211.2903554
23160192.1687767
-87760492.8252219
-8359273.48709711
-136461798.470816
-128749522.679953
-84320340.5688722
-34842796.2289416
53941089.0436801
65680230.1981457
-118760889.323756
-2313195.34328146
-109775104.142541
-112729828.971553
-90209841.5705095
-45841626.3549878
40397129.2342583
110856698.602755
-105297855.20979
-1343238.07294403
-85071756.3167932
-94784847.9469312
-91546952.3215909
-54561343.7458434
26751790.5281665
139589336.013485
-60383569.0243546
-1726469.47912057
-61967040.6096965
-75042117.4085485
-88707580.2197894
-61187677.0338131
12926634.7795029
148555136.091795
-25768465.8474693
-1620885.60299632
-40195567.172493
-54270726.413543
-82351456.312559
-65958738.8355309
-563579.918713656
137895046.67268
15177591.9229786
-763666.98386923
-20890258.1344196
-33886593.4633409
-73235764.9816608
-69142720.0948733
-13065368.9597276
113344059.904033
52070754.2902846
-196352.310841297
-6003420.64817211
-15715332.1634515
-62043467.619021
-70944287.460805
-24049971.5122968
85298214.5201096
61453023.13258
47326.7279936699
3161063.47935233
-1369284.04146971
-50156940.0393563
-71467426.0994683
-33393943.2767083
62152329.1815019
46311035.643062
102963.717591315
6961127.26017169
8259247.01730736
-37230093.611402
-70696358.7343293
-41137709.4425814
44570265.425691
21022412.9570582
88308.7941019122
7077093.05320312
13451836.4492197
-26398493.1789806
-68461064.3880822
-47385812.0532469
29143617.8121605
2947947.24941409
59571.8024633813
5478561.53478925
15096652.5705585
-15687374.0003177
-64816041.3416358
-52161914.4879342
14030878.2695261
-2719604.95762668
35423.5137380348
3729162.82203683
14396055.7869404
-9608487.10743233
-59438244.1569106
-55451720.5233885
-1092031.07701485
881671.20775852
19182.6706167312
2384377.54644102
12169002.3528227
-6571218.61863889
-53110698.0287488
-57174774.3368206
-16050233.4216267
6231561.06100282
9499.6258655551
1428966.75106241
9170295.36067061
-4126808.29177241
-45560046.609371
-57375165.5221815
-30457948.0431729
5654986.40379634
4254.55031578979
780195.692408711
5863105.54052498
-8599126.47793505
-38033096.7806379
-56025616.7601628
-43882496.6985174
-4797526.94008408
1683.2300391444
379770.544893682
3363984.05562595
-4487020.84089278
-31939627.3489937
-53615374.4118507
-55414331.4780888
-24404785.4041921
554.517482582556
159447.648433648
1548363.18327118
-7946071.42933842
-25761861.5329912
-50453675.4273499
-64131771.4358868
-50834119.4984173
111.26206267565
52924.3215840451
446608.256359131
-6207225.58673288
-24022767.3040956
-47098394.1173396
-69279011.2130123
-79359062.5199361
-35.9260801732919
9229.50914653749
-53215.3856515136
-4659279.97123287
-21030006.7740346
-44526644.1247815
-70809127.7386399
-101887303.833816
-63.7401250898234
-4478.10076842059
-196891.513629579
-5220218.64808575
-19132187.6074274
-41669548.437742
-69802095.9479514
-110983529.905357
-50.6651532122284
-6215.18751272275
-175347.640397386
-2662376.16367806
-17803876.5956651
-39560962.1075277
-67474789.6651892
-105359029.485429
-30.4777983206271
-4462.7064515452
-115572.819575275
-2131517.6887646
-13348341.1482388
-36461942.510855
-65311502.7369905
-88401642.6892231
-15.0055730889447
-2525.61795917833
-63512.1505796593
-1230917.40725773
-10241897.7484997
-31527056.5558976
-63168986.9388252
-64738100.1659697
-6.21296751777012
-1233.82727156927
-30887.7785215904
-570426.365731423
-6516874.59185241
-25928766.5151585
-60129052.7612501
-38393104.0015917
-2.18029666628789
-539.919958169853
-13509.7808027191
-302834.406507975
-3410091.98449514
-18650772.2003035
-54328056.3966888
-13579596.7453392
-0.648006510305491
-213.347971750704
-5360.23230154393
-117884.482596991
-1648041.27054915
-12001729.2363002
-44088556.4435233
-8627067.46214097
-0.161459583316426
-74.4164233579025
-1979.43007770633
-43556.1871846455
-660885.52542104
-6573629.25083951
-31541825.7514395
-22806387.4125616
-0.0316438313543326
-22.3214813783414
-692.788390513193
-17317.4258404643
-236948.461855413
-2986048.50551303
-20347100.5138373
-40992242.0725737
-0.00292167931977385
-5.74152399343244
-231.157379670073
-4623.93493133129
-80276.1910985468
-1176706.09241197
-11827359.0529838
-43931296.324817
0.0019351373535807
-1.34582742943739
-74.4760191447683
-1320.25822050655
-23726.2656865492
-418866.52640103
-6107211.11326249
-33550356.7749379
0.00236141194199656
-0.357913607117121
-23.0402206440502
-480.418797809081
-6322.96984534078
-133693.900323921
-2773296.23790384
-20019753.7291045
0.00229673925302518
-0.141655676665626
-6.64179906830167
-144.239971916699
-1624.89337466604
-38055.3414879394
-1135693.97704891
-10254320.2917746
0.00226572498741811
-0.0676683646970161
-1.75700670452298
-34.9242950814755
-378.653229738953
-9856.97689128413
-428373.674069252
-4722869.34420826
0.00225856799293927
-0.0271835099921859
-0.460314951962337
-6.98271249741185
-70.1785230637732
-2333.84897893752
-151746.397252771
-1963612.25721112
0.00225331007575686
-0.00299196574682109
-0.131768010230803
-1.25199120013598
-8.83905638811587
-484.2648768093
-51241.0424452057
-735496.483908054
0.00224675986126275
0.0114651040670945
-0.0395577035385761
-0.277079587381323
1.47513115897596
-83.5644702933548
-16760.6132053206
-251374.946774374
0.00223750386236159
0.0184882264443995
0.00765876394347362
-0.0724351823921921
4.23264469378324
-9.98468983589073
-5434.14578366057
-77691.5875933063
0.00222408663146421
0.0202328125261605
0.0417337326570287
0.00797079283753089
1.38448388916751
-1.06272924770623
-1790.46993681233
-21882.0387365857
0.00220819996852165
0.0187726376429516
0.0486040825635743
0.00272119069799531
0.320770035785471
0.0731213076490559
-615.114791849964
-5390.05114493271
0.00219568001306398
0.0153360323014162
0.0481925876338492
-0.00466568810957986
0.0656379113843214
0.284918654629318
-221.306311079485
-927.266520291479
0.00219442309618563
0.0107277522345096
0.0398970519009202
-0.00746783637148447
-0.00181970385822365
0.0694123840212207
-81.5118993080293
30.4087036789087
0.0022035599620344
0.00694014754965193
0.0198475234690377
-0.0280296224393325
-0.0270695766372307
0.00980958422389047
-29.6857146421069
117.860624811802
0.00221876340831419
0.00548638112632119
0.00745548039132512
-0.0204681423922108
-0.0242448601374735
-0.00254924701628482
-10.3566681041428
66.2555257568403
0.00223327999523217
0.00534689898845294
0.000764335928189856
-0.0572419603982341
-0.0368799827683818
0.000676469879664633
-3.2344270931363
27.1923422959277
0.00224558434326735
0.00524407983983992
-0.00207257803449051
-0.0310290965972979
-0.0284944666128042
-0.00853247303651394
-0.536688091653957
9.70642157143722
0.00225618922987643
0.00529578948212157
-0.00437604974371901
-0.0212608406862331
-0.0276370345647912
-0.0317944361306897
0.18343727478803
3.32730984459983
0.0022650987682932
0.00547146690491818
-0.00392704924633464
-0.0173707763254309
-0.0300248447920942
-0.0569936316212327
-0.0854691392678908
0.957402559671578
0.00227292942029327
0.0056312484977306
-0.00135341403154023
-0.0114517029008588
-0.0283810480256849
-0.0642700488679222
-0.490596820069831
-0.12149131161287
0.00228025555106858
0.00546430007828738
-0.00332619652312813
-0.0105472413273551
-0.030692487614007
-0.0578343797836146
-0.617308150044599
-0.733047805551421
0.0022857542927237
0.00583786837028617
-0.00431202220123156
-0.0141325087155843
-0.0365162047785972
-0.0536625710526384
-0.412906301172965
-1.14387466540228
0.00229142100284442
0.0054212632837312
-0.00106864673957301
-0.0107863499495382
-0.0358638997476819
-0.0445750612909659
-0.3498213087119
-1.45173234833592
0.00229479865200022
0.0058955764708631
-0.000422445624872086
-0.0104375101085204
-0.0373586937949832
-0.0232323641951512
-0.373524526512237
-1.43231833384607
0.00229855637118413
0.00573098871399868
0.00146032946787684
0.00926463910480333
-0.0239091907393783
-0.0300841570923192
-0.0437394242788538
-1.06200488637137
0.00229986294685025
0.00630137855388761
0.00350548904758139
0.00851802808088161
-0.0263389417242632
-0.0668939043388074
0.205138939242686
-0.694015520969423
0.00230201677001038
0.00618109562737675
0.00408987834702731
0.00758025180888922
-0.0169615352863353
-0.0681129413961989
0.133233452112763
-0.346650363999269
0.00230311871381302
0.0062139549329416
0.00416195260326936
0.00937341546471364
-0.00431185654321833
-0.0639417171627681
0.184626984404594
0.231920422863056
0.0023035947533033
0.00614156973992927
0.00462049407519454
0.0123479407103428
-0.0126746078920306
-0.0831244871382066
0.279564634650488
0.666641842475512
0.00230169298470293
0.00630149910647128
0.00522935601984071
0.0122320729858425
-0.0308208309007807
-0.10823098042329
0.36522667654985
0.655654462075018
0.00229578430183134
0.00678940104233924
0.00663768746581683
0.0120235439623047
-0.0395506143426718
-0.123054078429223
0.0191823906775986
0.149894708188451
0.00228499407849616
0.00747120546796244
0.008301882187289
0.0115285302467866
-0.0464368165259805
-0.131845699139358
-0.390595796791143
-0.395543318820978
0.00226542103787343
0.00851475908378447
0.0106025673735112
0.011525199124533
-0.0519442094351371
-0.13679299490958
-0.493102633516398
-0.465804911881976
0.00223124811018783
0.00920560941161687
0.0122359640290945
0.0105239730905704
-0.0549497591549182
-0.139724162494062
-0.394832729045249
-0.272465315731385
0.00215436117287856
0.0108535733571292
0.0140661849796571
0.00988569286862701
-0.0549835436133821
-0.139134415977704
-0.27871398593537
-0.0771147815788292
0.00200298442987774
0.0120379420906556
0.0169315167166493
0.00869372874978745
-0.0552218648382302
-0.131924552408361
-0.191544215151529
0.0313543929314824
0.00178076980916211
0.0119090020290216
0.0165584261314684
0.00626095923901069
-0.055335307778375
-0.11742581282175
-0.130026957353385
0.064051083325244
0.00255409862998831
0.0132242210161043
0.0169641045756625
0.00166922935472964
-0.052992238392094
-0.0894214527370712
-0.0738930113079363
0.0645849901424108
0.00313007911012715
0.0136378607451641
0.0123213016461693
0.00144179975125237
-0.025511361390688
-0.0373364851120319
-0.0143394974649189
0.0635451301408835
0.0029612542716009
0.00639367326334984
0.00572483442461352
-0.000897146570564478
-0.0135943535735216
-0.0132450709219964
0.00921790621540699
0.0504009744993345
0.00366255158037111
0.00818181803142622
0.00438250152510265
-3.2985477930721e-05
-0.00700620617795682
-0.0125758402686189
-0.0118361345594142
0.00437612397024662
0.00366845879508922
0.00524204369801705
-0.00290721154337026
-0.00248318920397181
-0.00270241714556219
-0.0217061963419003
-0.0617534693448712
-0.0772442203354858
0.00340751734231595
0.00521679083316442
-0.000259133265811806
0.00430310765958053
0.00865454736205465
-0.0239623459188684
-0.109983226289372
-0.170268447112962
0.00326622396908329
0.0052370656089207
0.00302651590448325
0.0119206487348907
0.0142347764076948
-0.0286230098752424
-0.145730465453592
-0.241436761361387
0.00309174433111596
0.0054911751253245
0.00707167828577068
0.00947083756559732
0.00117471362008084
-0.0483334041869649
-0.172212924812445
-0.271918419180816
0.00294241846407133
0.0054098070254356
0.0105997613670499
0.00955748795929987
-0.011246386450795
-0.0695908696752339
-0.185193077468816
-0.251948346337601
0.00284807707058774
0.00506947075867024
0.0117289660369114
0.00697074096865378
-0.0239483529156304
-0.0868481061916274
-0.181945619822697
-0.189725615932184
0.00278787281452708
0.00445811068330973
0.0109964683123771
0.00393739678297179
-0.0319630428961939
-0.0942422284064622
-0.16434087653573
-0.111926958081181
0.00272939587698837
0.00369017947791138
0.00937340610402519
0.000878993851653839
-0.0359961825508461
-0.0940716949212953
-0.140977982825966
-0.0586937459303441
0.00267301327777107
0.00287861778342726
0.00733869653775605
-0.00220135379277108
-0.0380482456092777
-0.0901503770613238
-0.119233710613486
-0.0675039813483109
0.00262469311074247
0.00208217571888933
0.0050603130583117
-0.0054563399787043
-0.0395838964280757
-0.085125130618935
-0.105128492026666
-0.126079043311981
0.0025832436530673
0.00133198709045553
0.00262201635722704
-0.00897358932182832
-0.0411285519231881
-0.0799319933744074
-0.0997513976615576
-0.172232368402096
0.0025403304156741
0.000640832914168194
0.000112632060054964
-0.0126121370081791
-0.0425404097084408
-0.0747238844891345
-0.0955673420559532
-0.176945465048262
0.00248418876269029
5.53840687355715e-06
-0.00240765390267674
-0.0161803848119256
-0.0435251357817651
-0.0694835726187768
-0.0907298253996666
-0.16784884753713
0.00240132917603521
-0.000592728465917023
-0.0049148964537386
-0.0195128232600657
-0.0438356781863069
-0.0641185236853685
-0.0854947078270742
-0.153669441840377
0.00227920244446289
-0.00118042588604843
-0.00740583509972196
-0.0224840104129972
-0.0433106595864168
-0.0584964978877311
-0.0791481810687534
-0.124008514355246
0.00210966201135037
-0.00177952210500834
-0.00989382135611809
-0.0250285442542615
-0.0418637503041346
-0.0524100917994532
-0.069856933600918
-0.10796429148
0.00189132797295498
-0.002398736144136
-0.0124040774280718
-0.027165414144363
-0.0394949050902888
-0.0455735698589767
-0.0622215943880428
-0.101147734412177
0.00163048910796759
-0.00302989095863842
-0.0149484076953513
-0.0289925022556748
-0.0364179675816022
-0.0380955829441261
-0.0544398438842722
-0.0982242582071717
0.00134013440776519
-0.00364951816111288
-0.017484267362748
-0.0306073496376568
-0.0330158275082792
-0.0304967155184622
-0.0462392180084192
-0.0925386311696279
0.00103873074209995
-0.00422775638335184
-0.0199174060436802
-0.0320690251909128
-0.029716903775844
-0.0233864362045266
-0.0382213858530328
-0.0859301428887765
0.000748487439379596
-0.00472750097942482
-0.0221022382028382
-0.0333438737543937
-0.0268766384788836
-0.0174112277849987
-0.031090080039075
-0.0794085878129324
0.000496775162060528
-0.0051159421163994
-0.0239542375400438
-0.0343719715201623
-0.024482095367309
-0.0125522499315159
-0.0250697271027398
-0.0737970871198196
0.00029345134555354
-0.00538795137077893
-0.0251088736381601
-0.0347573684488029
-0.0226816315769258
-0.00985515874148835
-0.0221617085855968
-0.0708111576426083
0.000151650020906294
-0.00627363944142419
-0.028312816374892
-0.0381953636342131
-0.0231256504113464
-0.00544596981878447
-0.0121100927216061
-0.0560753349834049
1994485227.0435
334155389.46464
365110374.375432
395601709.255558
158780113.217779
-100900656.922271
-222166113.245612
-336332834.986833
-393779018.500022
-447860557.987754
-489780131.573819
-583033522.010089
-1022708203.06693
-1537707952.55508
-1732563186.87435
-1425744622.11052
-848034499.373362
-265152090.895429
158394416.202823
340275405.079936
322856268.682445
176322910.535457
-5702853.64691462
-161664654.137323
-229465466.296183
-232306431.849682
-194729852.361839
-168953047.115882
-658151719.576765
-1390371964.17082
883631122.567543
51315081.6631788
138034367.394866
191389750.447798
75706675.9258607
-49053439.689621
-108080892.811231
-158910506.980544
-187522127.737666
-204681858.232875
-215226437.557037
-293304379.362039
-559387066.113619
-845021917.574774
-948532265.72899
-788063367.270523
-480305576.623571
-165596592.617909
62356413.0109783
158580433.140683
140957814.92044
50070710.4505758
-59902735.9073677
-152269231.667881
-194346646.500514
-196017423.728013
-171116812.193422
-147438423.276048
-443289327.566997
-550750945.436759
712953131.523945
196568789.971249
133498575.62058
185273122.07594
81502979.6087574
-22945639.0076019
-71685135.2946931
-112349839.824804
-134411633.578685
-139870383.290856
-141652839.544427
-237490319.00015
-508225481.442489
-782749546.30566
-879726850.067786
-733117620.398571
-445272644.136497
-144881281.390805
74011150.7538153
167791641.507858
149160217.684571
57933686.0232031
-51953422.6124432
-141968513.506033
-180560079.929595
-174998431.653451
-135882412.592375
-90128278.9710934
-462101344.421692
-410330565.767796
677480155.780818
208070546.077281
163898908.699897
208339695.986574
105961694.502256
9159871.01403329
-35068508.5179163
-76079844.0875619
-98117777.5538834
-105010469.611662
-106544111.989923
-214842685.599969
-485231346.583301
-745391151.39147
-827042924.478895
-676662376.849887
-392469240.244496
-96981504.9366473
116914903.534805
207148028.63441
186852350.334323
96416268.2589315
-10712859.9592774
-96272587.5336104
-129752472.795102
-117393032.692396
-68369157.2025602
-10940589.2272114
-439305618.637017
-352107101.452079
683713853.549441
306715594.357126
204667135.731166
230866745.578532
128729736.122941
36119671.9339968
-6299582.3932421
-51131078.4557531
-77173726.6458892
-92350910.0561805
-98485479.545025
-210894485.894301
-465670979.34239
-698325032.236979
-758092572.118951
-603741025.027129
-329108916.534837
-48522442.7614623
151360401.88944
232505499.043357
210200090.806753
124039348.346534
24238235.8080347
-54047821.2005475
-82965068.6464963
-67973275.3022624
-17947793.6537386
38921400.5932069
-353591418.055153
-317568765.728824
706149740.666155
400297928.872144
243771502.816924
247952592.717666
145532355.580568
55437030.7199446
12648747.0728065
-35812454.6611823
-68006776.0557541
-93094533.112824
-105548745.196927
-215401988.833311
-445630427.936817
-646233696.570077
-684196825.571011
-528975847.29277
-268928488.337743
-9234675.47367484
172007656.974429
242086452.962438
218370177.571246
138578934.401053
48199767.7502487
-21861364.8597113
-46724627.1348504
-32440971.2755385
13322333.9179993
63508639.2296087
-261921647.247547
-293999656.006427
726466176.17781
518616477.008358
279062051.859895
259539944.977649
156595174.175266
68288848.9169337
23754848.4425821
-27095225.3555627
-65856620.3952199
-100240967.777025
-119142230.941906
-221841480.094369
-424345711.811119
-593697610.036589
-612964794.622445
-459943896.523401
-216971793.842728
19907754.0904199
181578641.887509
240906541.548913
216716729.594707
144242390.275416
63753240.6356457
1825127.8043208
-19798761.6586484
-7621872.53316589
31624335.1871222
72961319.3445864
-223975721.95977
-277061238.309913
735144056.406381
597865901.898988
305781609.636953
265893021.623253
163014290.905868
76223883.6282509
29434962.069888
-22829065.8112944
-67309256.4234286
-109628351.446699
-134518666.444937
-227200875.03394
-401799644.453244
-542954249.410592
-547379749.162037
-399015772.901341
-174006636.992352
40283007.0004991
183242129.542028
233032721.587989
209250272.438305
144357655.940356
73440142.59352
19123686.2956115
172919.996618882
9704677.9341855
41791900.0193133
74040013.812078
-126358614.126479
-264779271.221003
742873862.258459
607075849.886828
321944597.923508
267095590.733046
165846056.465865
80425163.5737828
31494997.4085465
-21638139.2055592
-70326614.6571841
-119029792.793694
-149332640.87442
-230279061.959307
-378236873.954954
-494919395.320765
-488264623.436276
-346412808.307027
-139380238.922607
53520936.1136163
179354702.491299
221052583.26589
198386584.45139
140959973.443229
78947865.6215072
31562981.3613842
14916105.3182741
21712283.6063129
46782223.2623722
70579662.288962
-53146512.9122213
-257259657.183107
751284400.555288
578155662.812204
327104958.899553
263497842.93524
165805216.803118
81631445.5671318
31101757.5262966
-22546642.672136
-73759792.241939
-127317777.039455
-162490934.942412
-230772485.782387
-353983289.025645
-449918933.404189
-435541620.229186
-301560911.647609
-112047790.215143
61059456.5542495
171569792.84959
206567215.276108
185534163.417019
135242608.748072
81334846.6073354
40927016.7605778
25595628.9138848
29791584.7070154
48350913.5495778
64683403.3765026
595246.909601875
-255280663.664414
784693934.805704
550186765.896921
323560466.640945
255821149.708869
163329879.903542
80324608.1349508
29013938.6479285
-24860006.5738069
-76982262.0294396
-133962651.89375
-173537070.598239
-228791588.033658
-329384648.231393
-408012404.48831
-388786794.658399
-263636061.602664
-90929132.2707258
64091076.2690469
161063233.725882
190595117.036216
171536160.185807
127926558.500532
81289876.2102128
47126473.6023591
33007707.9518654
34851860.4063916
47563834.2138138
57503953.5627126
38659449.5130568
-264133508.565935
803944309.566547
507320380.731009
313232401.287239
244975791.83532
158741014.257712
76912197.9601927
25714864.6046306
-28089265.5767344
-79668141.3165185
-138764461.048241
-182345449.438543
-224633064.130253
-304776411.960149
-369143625.712201
-347459958.946975
-231775351.060131
-75022862.5891227
63595156.0570417
148695471.980223
173809999.501675
156917062.990896
119467708.944495
79287465.6705188
50708945.7308802
37722990.195864
37511926.8443623
45090796.1224554
49649490.2037483
63892490.9640291
-280225136.738736
795200983.607613
454050228.134872
297442544.595391
231709995.785938
152292071.527989
71754099.087585
21522831.3176613
-31888304.1030741
-81668457.5740385
-141708615.267849
-188960047.184101
-218665181.006214
-280470787.923481
-333205634.674082
-311002878.967811
-205158770.848137
-63438459.5491735
60377379.8547548
135113669.723245
156675991.046283
142019153.134941
110172090.214614
75676593.9958403
52093194.2615934
40170988.4162791
38212974.3918154
41369178.2940025
41414890.3529743
78461028.7334646
-300689773.399092
749291185.316357
396813298.985613
277288788.800365
216484722.435187
144192579.620108
65172350.1182463
16651830.686443
-36009842.8399628
-82945141.5776847
-142890130.658579
-193500039.822548
-211272139.939328
-256750700.537925
-300070935.816888
-278879930.699552
-183037816.744192
-55398482.2213529
55103129.5345028
120815156.655792
139524469.81649
127077241.445364
100258439.131597
71625220.3351345
51616689.401748
40690554.2620039
37284693.3240228
36695966.8472013
32921337.0144308
84119995.3093518
-323305633.075631
658215303.025419
342467929.439101
253917199.067187
199665363.435894
134617237.95221
57460779.4335759
11244704.0074791
-40274925.3389792
-83535923.1482898
-142473000.82551
-196100248.926998
-202826926.754569
-233867636.758785
-269605059.869268
-250594027.52831
-164742385.312968
-50230654.9448293
48323435.9302041
106188016.692339
122599310.91323
112261084.439233
89893433.6446111
66396777.660875
49554653.5497828
39560931.3483017
34985416.3370956
31281717.8265888
24212338.8273053
82380854.5441879
-346354632.764314
524883947.20822
294809368.823596
228393680.011299
181530316.124936
123712288.160796
48888293.3357677
5397532.41914877
-44551218.0007232
-83534063.5493203
-140666647.218626
-196875264.894064
-193679022.434296
-212041060.657283
-241672831.716246
-225691476.519252
-149678704.844704
-47356984.250169
40495006.265266
91537923.5230395
106084336.230105
97699853.3709244
79211958.1035712
60202130.8782019
46146124.9616116
37021282.5569733
31527131.1790238
25283255.7753966
15312681.3737877
74655323.2875727
-368303569.309931
385405991.57002
252031923.098258
201495905.513489
162289747.62365
111598009.483221
39700905.8463595
-822857.297221289
-48736959.2909023
-83071920.7738949
-137707653.98958
-195905072.699614
-184150276.335776
-191458256.611293
-216141122.696517
-203761969.447409
-137323872.682314
-46282697.7938817
31995821.8871364
77106577.5900747
90120518.6413736
83496564.5438497
68329528.329659
53227924.99052
41604578.2673771
33283274.419078
27091499.0457949
18824163.0400718
6278080.3954398
62315868.0541769
-387641124.627698
275805380.993142
212641999.200004
173794081.197574
142120571.718471
98362372.1817646
30136964.2795118
-7376155.92379614
-52749199.3504917
-82301187.823949
-133839511.910786
-193242304.099983
-174536573.148397
-172273992.554763
-192880016.091699
-184436540.141182
-127219349.10908
-46585999.5315476
23137504.241537
63084799.9322478
74817100.8472281
69736667.7665992
57350448.2180846
45643840.5367802
36124933.3352932
28539292.9343462
21840274.2005081
12007882.6190815
-2801088.6161564
46637091.967912
-402900900.239293
204138994.494911
177315499.706417
145719514.221011
121202339.012911
84108314.6906323
20392741.7349901
-14236951.2279594
-56516016.4859514
-81369089.3049346
-129288390.067902
-188935337.789731
-165114353.568242
-154609837.725105
-171763309.068754
-167384775.675706
-118964464.86272
-47908917.2228685
14175298.7149778
49622146.857499
60259000.9900248
56493164.9610408
46373974.3685398
37607123.0261987
29888176.1848966
22967811.1877083
15922116.3735044
4926185.12887602
-11808717.4348335
28814076.4272727
-412731156.396789
162223006.498681
145831970.271095
117549173.596572
99719809.7807517
69031422.2107528
10573051.3552918
-21376743.4137388
-59973932.3768637
-80396959.0909909
-124239781.609674
-183053834.356116
-156149067.293627
-138553104.985071
-152668908.659846
-152311875.765097
-112210310.45085
-49949223.8968842
5316319.27342241
36834190.973586
46511874.4669816
43829641.6785882
35499555.6243877
29265996.4349552
23064337.7529558
16736861.7746288
9476968.12207248
-2335397.65441634
-20621264.4267922
9931731.09152886
-416727685.127266
136977896.349355
116350582.752327
89411579.3776817
77875958.4460027
53384823.6126291
734646.20323627
-28755658.3960637
-63071940.7102252
-79468589.4771671
-118827160.932189
-175704672.651246
-147896646.349931
-124155278.268006
-135479541.599652
-138955813.930335
-106654145.324539
-52453334.6800681
-3273544.35080961
24808187.6189454
33625682.7242122
31802019.2659801
24831158.7549103
20762005.6322511
15814323.6298821
10006170.477666
2638799.11896455
-9694156.9831783
-29127413.0664863
-9069992.19122636
-416957343.940871
114092997.020793
86596378.910422
61385748.101891
55913950.6503617
37413213.7191376
-9062551.45690897
-36308173.3541864
-65780535.3039062
-78630183.2470452
-113141143.409938
-167043848.350642
-140580641.370049
-111429971.835982
-120084096.764784
-127084673.471811
-102034328.3672
-55210038.1712433
-11463710.7110143
13607597.8749252
21637270.8334625
20459597.9696967
15236497.8645438
12230987.3417614
8290864.23064296
2928344.13080251
-4462845.32377519
-17068156.1689254
-37240480.4263541
-27425747.9884915
-416645036.338207
82042844.9614515
54708518.8436855
33657606.5899614
34107735.1926848
21348974.6355792
-18753851.4941533
-43926385.8296857
-68099886.7539913
-77898102.0004469
-107268544.305852
-157296737.031358
-134324003.690397
-100351907.090541
-106379629.658584
-116494137.898741
-98125748.7462926
-58044920.895584
-19153777.6479915
3275795.27317537
10572283.1158123
9845448.08733119
5979654.93317776
3790556.62722094
638781.403678353
-4350612.69566643
-11702127.9241332
-24375136.8560724
-44899365.9732074
-44538954.4053523
-418294499.907875
37189871.0561344
21324957.2080227
6700860.57404405
12754170.6867048
5409520.82144168
-28274548.6141933
-51455379.7050473
-70059096.4219384
-77268724.8105152
-101351681.423024
-146790656.277268
-129041630.744866
-90861437.0793455
-94273503.3331959
-107005048.210122
-94735730.40302
-60815402.567013
-26269019.6876786
-6160837.39840238
446616.961977182
-3443.87986423228
-2858815.58661948
-4447741.88907724
-7005040.77512102
-11691291.7085654
-18956837.0270005
-31532144.60753
-52061864.0938281
-59965901.4826863
-422531426.840898
-18340314.0192014
-10839830.1495336
-18758027.0394642
-7829793.91953439
-10198948.3364464
-37559015.3971282
-58709662.2293968
-71703737.7750102
-76726191.9983355
-95618520.3378622
-135965497.394141
-124375149.980245
-82882009.4385139
-83684307.7540332
-98460961.1229265
-91700394.1968759
-63406269.8470705
-32756389.5696021
-14690269.8156658
-8732440.78228677
-9056037.81333621
-11199229.5448448
-12379275.1732814
-14512029.069685
-18961243.4409904
-26108761.9397728
-38455710.4523875
-58695584.105782
-73377282.6206401
-425715954.543075
-75022209.7009103
-39632205.7038417
-41977092.097652
-27310922.4297397
-25270372.7964631
-46533124.095432
-65502548.6994924
-73078887.6102553
-76246001.0601207
-90325786.9369086
-125303042.323079
-119785408.275759
-76354824.2656248
-74539714.1577783
-90725812.201006
-88881491.9715969
-65725660.0443268
-38580941.4530449
-22312532.8395389
-16965292.8907959
-17287300.6488487
-18968236.1007277
-19907292.2764763
-21762488.4286703
-26035598.6554696
-33044410.6386541
-45062481.2901741
-64770124.4018729
-84533923.3888658
-417556272.230366
-119132049.524
-64525587.0182525
-62357902.177795
-45351135.4212985
-39597545.1224926
-55106536.6579561
-71671330.9571191
-74218258.2049226
-75794871.4540746
-85655584.9015138
-115180026.935805
-114765783.498482
-71278367.0341614
-66769819.1547774
-83682088.3977171
-86163708.4111808
-67701427.9068266
-43722622.4874912
-29037711.7132523
-24259271.4071921
-24678326.9890152
-26101868.0465003
-26943825.1071609
-28646296.5230592
-32797880.2138567
-39655966.1367238
-51270193.1443895
-70252300.7338385
-93254433.540383
-379973303.768961
-141232548.863752
-84828239.0353897
-79436610.7944811
-61644211.4957358
-52974723.3442805
-63169250.9273723