/*--------------------------------*- C++ -*----------------------------------*\
  =========                 |
  \\      /  F ield         | OpenFOAM: The Open Source CFD Toolbox
   \\    /   O peration     | Website:  https://openfoam.org
    \\  /    A nd           | Version:  6
     \\/     M anipulation  |
\*---------------------------------------------------------------------------*/
FoamFile
{
    version     2.0;
    format      ascii;
    class       volScalarField;
    location    "0.0052";
    object      ddt0(rhoE);
}
// * * * * * * * * * * * * * * * * * * * * * * * * * * * * * * * * * * * * * //

dimensions      [1 -1 -3 0 0 0 0];

internalField   nonuniform List<scalar> 
18800
(
348224.320241395
408751.786019269
162930.462790469
628135.16427418
-1008230.76771358
-1835949.69566543
-2500321.87850599
-828604.695497677
342468.744512523
407772.332165703
166774.590961777
588682.561478737
-1010478.50013941
-1837140.9194575
-2468352.05210262
-967410.296530737
335714.408475855
405311.373372398
173668.427676046
531591.829918517
-1010848.04450655
-1830654.80913468
-2491877.67987052
-1288321.34472682
333067.257573032
402856.778174228
192591.075218554
423825.846759789
-1010237.20291367
-1813879.27872228
-2457402.21350961
-1645171.03020024
328751.873323017
399137.333377368
218644.047447784
286475.217741161
-1004974.20067624
-1789390.74338187
-2437001.29928826
-1929138.10474042
319475.393652658
397093.196702335
254851.192184595
103722.263827094
-994475.520298703
-1760876.06991331
-2307941.34584991
-2033531.22840034
314131.235343838
395778.888701862
297037.144497552
-103182.28714378
-982518.793974286
-1723532.66325877
-2233351.41918236
-1987728.88512394
298289.860738504
398165.230609396
343855.366626358
-320789.189384605
-965456.903210956
-1678983.70466297
-2110184.67124992
-1899102.69245458
307116.959979287
399791.38951415
390176.20400408
-525290.113590685
-942279.638909523
-1632215.71770218
-1984127.55376535
-2103916.09408993
287434.676669331
402844.244528529
433097.624246632
-698159.258250178
-910929.853885129
-1578564.77871467
-1979860.54211275
-2393688.39102116
372844.935147999
398002.265215098
465804.43429367
-824930.522244145
-871402.496283882
-1519548.43595796
-1965700.23850296
-4072846.15564934
382446.053279877
388899.516282563
478547.883294043
-895745.11220858
-824699.350158734
-1457136.21836787
-1945138.52452965
-4149604.98814503
305224.516983106
360869.997147732
465866.951840843
-900412.718809974
-772599.580124105
-1388664.90245676
-1863033.39707547
-3384610.45543163
284835.42081881
324668.142247749
427093.111382034
-820376.773063633
-715576.106121343
-1312473.54315478
-1790008.43158218
-2976415.76100923
265986.334117931
266394.866695188
359586.75098914
-685811.146984644
-651910.010340404
-1227387.06600257
-1698331.90135074
-2781892.18895768
261054.05379838
208380.71481234
262014.548309401
-381063.161121004
-577606.704382851
-1134018.00029125
-1619035.87502143
-2690486.14951741
256460.236421622
142485.203694004
147405.032055226
-103006.423027007
-486008.870834856
-1033997.63979542
-1550285.60601223
-2616599.2116862
253223.448467635
100000.320774791
11149.1973680965
454875.285200725
-383781.501373915
-930740.353211978
-1496357.00018845
-2522001.05739233
253167.425397569
91602.3099941043
-87507.3872671886
762474.644706154
-263369.365005962
-829094.942613071
-1432118.64719382
-2396369.70427887
254696.60018226
78495.8588435748
-154610.340714698
975685.545741413
-173338.734675328
-733051.283614832
-1360839.03733814
-2249647.91569063
263925.439011551
100726.896226207
-159703.531401876
1466902.56691371
-92526.4812821215
-653154.949859684
-1274268.71098806
-2108367.01380884
279180.294485733
132305.257653387
-133233.889817662
-113334.73110605
-36886.8336484396
-577033.429741743
-1175008.36725173
-1988854.70831126
295474.868480723
179803.245017347
-79059.2878842158
1461408.20059828
-140916.808201695
-531233.085537731
-1059566.3759661
-1884417.30263166
310692.751099659
238397.054265401
-6052.65651379801
-1324852.13819075
118177.327301025
-469721.22075644
-936401.838146141
-1776821.94152291
323464.04531541
293517.988318795
232616.718808559
-753291.2169896
-284513.601294451
-412400.41360363
-811473.479057721
-1622162.37392519
311876.144997823
328175.658801759
314072.616034081
1129651.73506063
-38108.1955395849
-411568.607130668
-686179.854588568
-1391794.29074069
314224.892269268
356999.573650407
204095.412860888
-4637776.93603885
186423.401555472
-222522.272830775
-609106.056244324
-1129931.37367832
295703.2187256
353537.004680805
231977.839309118
2616091.73681238
-1249010.36424126
-276985.247210713
-499415.132387467
-919135.229689201
287309.014382763
350369.510951868
48186.1121150577
-622383.362876219
950062.926550597
-185828.215680296
-451004.449836179
-875955.896345381
277927.915700998
248004.50672868
65070.9403902794
-1212465.32150078
-176255.115605085
245883.756294943
-407874.165837711
-919621.778523455
273119.211242512
177830.51759227
-31670.2854972719
6081848.81502131
-840090.82610375
-430989.207146383
-273370.711935399
-938507.946681141
270467.839178652
151194.453578087
-241533.870998571
-2834519.06660314
1674593.24585
-104302.41942375
-330950.663037747
-932399.315426257
273875.183755147
87742.5477927471
13426.5769010324
178606.986844853
-463172.996963897
125085.543798262
-348711.303001435
-792835.142403825
273071.588752663
149303.687087015
107216.486070677
3530403.61346765
-576468.076179918
-550273.446202735
-182230.143625607
-499699.52126938
271621.06624178
204029.631293807
125106.938385888
-9526195.53987299
613013.196677121
-293379.921161504
-202312.162553401
-129233.872474111
269818.404822652
167293.311675746
454164.201420459
1110515.1772561
-922670.185202005
133088.106515015
-218481.526951869
277068.597234756
268841.82751348
140596.559896049
409334.294572841
7933818.04430213
-498169.046793789
-339654.663691114
-207186.494094647
584535.668420864
269023.944282299
175800.301212321
-133096.198426743
1003647.20702211
1291047.13578722
-665036.006537617
-219805.621998489
712531.330966849
269762.608639689
216349.763916426
-335217.652002457
-2484663.20923618
672433.935647095
-181530.139975623
-206913.359200929
358462.089348302
270599.614838083
225740.491827146
-39779.3476743826
-2195523.88034169
-610623.888174608
240942.462174218
-184278.361007369
252504.068106553
271346.20132448
207907.508008718
259118.262528153
-690367.116304914
-665302.527398154
-144365.890397701
-187609.537419176
171182.458206424
271851.323536822
186788.339535277
312603.519529693
378891.636147802
-266710.686858819
-355944.494936445
-238668.601936053
186536.01258467
272198.974800518
182056.486262639
143050.988554944
713951.064417955
242121.68280444
-370531.587588307
-202893.155184791
77272.5703959188
272548.314237618
195601.184359543
-37090.1572973384
516732.729635597
442914.808600318
-191262.182790271
-215801.921621623
112694.864925816
272904.613290923
212939.301020164
-52309.438086415
-34572.9828509663
63948.2420212273
54965.8726114008
-195210.552367789
219093.677492967
273175.706711518
216689.54814311
78776.9850002384
-154737.589575924
-88558.7419246251
-10487.3554950863
-167820.359070871
168824.278850131
273379.750516848
205879.062732015
184070.616408535
-3856.71397988284
10084.1040275996
-192139.084359374
-154131.224520984
146591.41343821
273632.087192823
196358.894660009
129443.31631144
159599.483817325
43720.9356146268
-105958.956181597
-123793.197778945
146540.310148126
273995.291049974
201017.357600401
44117.7545008435
159464.336484615
1706.16011280425
-64908.7488610967
-96053.5737146791
145982.105846509
274460.449772966
207983.599861273
64343.5861698137
8703.53757075438
-38283.1423088729
-63563.5472837166
-80885.5856869954
155155.224516426
274960.749011292
212158.253682827
111109.688091548
17770.2118327785
-55125.9178750892
-70157.4309539193
-69014.9642535019
152113.718879647
275517.326630156
215279.383220266
106806.887762163
60535.2391481786
-61861.8702330131
-67049.0938884115
-53250.5867550076
144015.772668717
276196.150516772
218867.11667061
95290.130263387
47032.5339397951
-69190.0895240461
-64627.0454633527
-38591.1445030846
135627.056366022
276955.842606948
222979.99672241
100922.255527969
35896.573850464
-75711.785782724
-62664.7881751013
-37154.6738727343
122555.809350647
277799.333336849
227080.894433942
112936.598378055
35385.8763026814
-78374.0751321069
-64756.3250160525
-86938.7611916503
105522.387283793
278715.874389057
231208.869087818
117793.249062032
32617.5488156231
-78332.2971405866
-70344.5622862841
-141037.415609044
83882.1913856618
279722.350534573
235258.967861041
119702.000661196
27035.3407034178
-77478.5440594978
-80912.4476324414
-153026.059303769
59839.8257965542
280785.937203228
239415.378618447
123879.202399316
23790.6569334482
-73152.0568617576
-95252.8590424396
-140465.026742594
34691.8457760214
281940.520359821
243544.470965009
129301.500702342
26236.5747512548
-64712.1277030349
-104636.006019678
-138721.102930466
22649.9683094025
283132.213892097
247974.567191276
133138.873159338
29455.5600264056
-54839.4627333912
-110423.690362714
-189940.625528407
41451.7694599501
284376.484599185
252505.152406111
137399.882263261
39812.2453033167
-48905.0695843158
-106301.384711358
-82029.2937204767
45472.6020650047
285607.907544416
257328.062754138
141776.417659602
45309.4584761061
-40317.8854897221
-100509.0063977
-70865.7567239769
52999.1525088284
286811.074963464
262247.701776094
146760.871268957
49802.881750197
-33546.0301727556
-93403.2019598445
-50990.3347235376
63119.1533794722
287916.959779195
267266.056644242
151992.156863907
54959.5730683681
-27755.4255741733
-85231.0008971638
-41128.8984195376
74225.5360043186
288876.075014383
272190.592677907
157655.649775437
59321.1869219708
-20785.8673621993
-76276.5666808675
-29043.7185427475
88798.8241922935
289609.489016967
277014.65981443
163601.051666887
68563.5926832624
-15273.8867286117
-66009.0232624974
-29656.323882394
101343.591351786
290034.081279001
281696.714916352
169509.498152328
85091.9520817937
-2969.26287775282
-55240.2009513566
-40034.425004773
105086.604269966
290089.784528502
286060.047477249
175273.746656791
105102.471448153
13150.9253578673
-41804.4709829589
-42775.5527364799
94417.2167775714
289763.90110772
289671.111176125
182329.255719931
121725.19006902
30822.3621546688
-26954.4148526161
-48151.4366581076
83245.6010969827
289177.404258832
292610.776457335
187652.577799596
130278.019687013
47240.6769976888
-10025.2397099659
-43882.604152577
70255.6486517547
288501.515348138
292609.788483706
198846.678602311
137213.123848866
62933.1233726139
8745.02687166851
-35044.8775623938
62559.687005315
287831.33700192
294713.951407117
211982.112559037
142246.060413845
78613.2611198839
28816.7551987872
-20726.018466751
59414.3443862904
287264.652163988
294268.443055568
222056.15941688
161494.605802004
100125.969928568
51466.2535248995
-3460.38163882076
60531.8784916516
284846.38201434
288985.048920477
233628.121695217
137703.831148259
120624.908839607
73782.7926675146
14330.1487479607
63810.5496516176
281764.932286904
290367.811804517
244803.098060351
157987.797285912
145310.087086237
97750.9421894855
31900.8344590138
68870.3794015571
278366.948190824
290412.446555844
259042.595229034
188341.918607818
172360.890875092
121163.686162847
47126.6553029699
74900.0003444829
274491.369221512
290681.096481406
270829.641317903
217923.31921057
200335.504233361
144591.930011016
60780.2272733347
81558.3716921731
269900.322221047
289172.403246404
283250.888956879
249422.276468675
229273.70271535
167139.082840193
72938.955483981
88668.0103818452
264634.802392257
287058.851218468
293224.370118727
277032.0258962
259631.851080873
190507.031373868
85143.6294651396
97111.3082517998
258983.39898108
283923.224030715
301349.648918662
308056.682110162
289644.626737977
213667.033842101
99010.0173150061
108671.912499446
253006.268073318
280240.76318049
307832.064180717
326540.254010569
313809.380973402
232677.6941079
113276.751768287
123729.757989934
246932.942111833
276360.138187595
312995.250346326
340588.483127355
332449.888460596
248690.910248867
129191.149616411
143631.273024328
240943.719641175
272646.057231248
316786.910274857
349861.125482641
343977.764679163
260439.837752954
147241.301463303
168741.003658284
235171.841373145
269189.272573513
318602.129012137
355122.363039257
350050.057441691
269569.034868984
168280.608098315
197390.179300713
229709.493750591
265988.944367419
318058.050137004
356132.654472427
351283.185257795
277071.239959784
191961.458576482
227436.077714491
224619.219194077
263064.279008921
315324.2663427
352971.182103962
347933.193691306
282991.851442739
216811.25806204
254736.402690317
219916.787480004
260414.556307897
311174.061631872
346689.757238139
341070.331327051
287780.12848782
240962.839089639
276764.485593639
215556.996148858
257906.050617729
306425.033016732
339133.764670038
333139.87794746
293205.334967363
265035.240841848
298988.11891878
211429.131371169
255163.208852135
301425.305777525
332291.45424111
327536.205621763
302162.675275308
290418.786258616
318956.230580891
207373.163354109
251580.315645562
296013.130737407
327728.841778683
327474.735517281
317344.513996241
318312.567177585
337544.584233884
203222.369324705
246467.408708668
289758.069310254
326433.789785489
335350.261289159
340684.815818216
349619.895783908
354948.620832589
198859.635495676
239269.755572057
282058.604640067
328664.527424452
352512.257277737
373421.50015391
384886.809490767
372119.055513431
194255.191526259
229748.450716432
272168.365629368
333711.439946306
378889.368383226
415758.706957766
424375.762825506
389674.715127521
189467.946993931
218053.892984412
259548.565024323
340085.890321648
412610.647796293
466140.982508016
466944.452040207
407447.706683827
184628.62605372
204722.264534154
244440.945822163
346240.792994105
450047.682451802
520652.243016723
510575.045259848
425674.62120535
179923.640508476
190634.541938108
228056.384148071
351218.092964569
486549.376045889
573411.08886305
552131.451895156
444303.111688847
175581.44114699
176883.959851931
212055.591588522
354889.472110387
518240.552117426
618714.884491577
588070.290966877
462685.97818081
171854.598175034
164688.065290602
197899.282088071
357535.632928887
543320.307753044
653470.698635475
615756.317930389
479280.509898216
169092.642770484
155151.109783287
186993.830686601
360035.04628515
562206.265451444
677826.91824422
634467.745644203
492130.377284062
167335.324582964
148863.936326416
178180.106817787
360563.160427886
575396.802657726
694502.324329736
645381.759564343
498900.909328148
-3557086.65618035
-19512138.2548666
-6895784.26316276
-4057452.10442158
-3413742.60419934
-3116075.33647199
-2972175.20665411
-3021743.80529209
-3320140.86414917
-3971236.68294496
-5135414.30228613
-6692689.46585568
-8393844.31698234
-9935851.93354474
-10756834.7230428
-10578214.7361545
-9583701.08445198
-8238788.97125488
-6847573.20633879
-5917707.37424676
-5464549.84385037
-5416774.35230686
-5556719.48061808
-5759008.15756577
-5854007.64076016
-5914064.71372978
-6061365.9232543
-6265756.44495213
-6307858.64943571
-6207540.13606387
-3290214.63633964
-16034343.2888227
-6648543.0593192
-4048758.88115801
-3413335.71960119
-3116440.75869314
-2972683.99991389
-3021029.51119779
-3319617.25718223
-3972540.07667846
-5131974.68262574
-6694483.78278184
-8399579.17671201
-9947142.69815042
-10769941.0415033
-10591711.4946202
-9594851.92512239
-8247151.45916367
-6853759.24934148
-5923307.43592478
-5471072.73110081
-5425139.79971799
-5566967.23276865
-5770887.69207594
-5867114.49803165
-5928128.91312766
-6076456.63224685
-6282324.81911895
-6329248.55908962
-6188600.1007438
-2753152.04136007
-9475601.59897008
-6119183.44062966
-4022464.01630332
-3405213.97522114
-3109571.80520993
-2965986.10188961
-3011755.85285892
-3310293.25606008
-3966101.92530775
-5117716.36056654
-6686305.57643427
-8401904.5752996
-9957265.97074176
-10787454.0360588
-10609799.6380029
-9608886.83147884
-8256056.89462628
-6858154.66357663
-5925700.31106726
-5474028.8170307
-5430903.3606402
-5576283.31977342
-5783689.15482205
-5882418.65013379
-5945355.85379649
-6095272.89093824
-6303747.19249802
-6357393.17387782
-6143697.1552187
-2346620.84025179
-6012832.98289762
-5494257.35418916
-3975595.61940731
-3383297.16377808
-3088269.01731589
-2943744.34807988
-2985692.73828167
-3285546.12853624
-3944456.28157033
-5087867.98378398
-6666122.08778354
-8391315.43388835
-9957922.25489147
-10793009.3638338
-10615933.6428876
-9610241.02293111
-8251574.48332114
-6849046.41848811
-5914915.3326446
-5464636.71782106
-5425023.65650323
-5574321.48190042
-5785235.06553853
-5886507.2422354
-5951126.18949091
-6101906.53324571
-6313452.01199157
-6374259.31743655
-6088922.87538906
-2070691.54536197
-2156028.60509512
-4877713.97230603
-3912824.72101241
-3347936.55296607
-3053701.09270278
-2907190.70349482
-2945668.97688838
-3248426.27974881
-3908303.02456682
-5046312.73147938
-6631969.7785587
-8368946.15119645
-9944446.35072154
-10785372.4777368
-10608237.4528776
-9597805.94403198
-8233491.11038493
-6826576.39680056
-5890807.47918708
-5441825.43697427
-5405650.84103028
-5558889.76108183
-5773382.0161598
-5877215.35837048
-5943410.97116187
-6094576.02247713
-6309330.01132697
-6380082.55640044
-6031433.07585911
-2046238.02972087
-1314879.24785366
-4418974.32138289
-3840129.11923755
-3301795.73382131
-3009109.27990572
-2859931.61320684
-2895213.68249538
-3202417.62927335
-3862180.99700208
-4996110.30478502
-6589789.42750746
-8336815.40169984
-9920791.05179591
-10765838.6940415
-10588308.569636
-9573317.91998859
-8203852.23832321
-6793282.28466503
-5856347.04201163
-5408930.17658617
-5376151.23434178
-5533085.98965795
-5750835.77228009
-5857034.12316012
-5924576.05049092
-6075855.67536097
-6293832.23328001
-6375252.62528868
-5974186.81272754
-2445028.42640365
-858476.692181488
-4081025.29389048
-3760527.94880257
-3246434.95308878
-2956612.73033126
-2805026.29335735
-2837638.84762334
-3149319.94867121
-3808401.04978793
-4940183.56731902
-6540403.7786852
-8297387.5918079
-9888472.49203128
-10737223.9232329
-10558948.6125857
-9539560.68018815
-8165362.30971884
-6751636.11185149
-5813751.79264947
-5367897.01324974
-5338365.4128032
-5498794.31518037
-5719623.69893968
-5828067.7945233
-5896846.22589916
-6048130.67139861
-6269345.71460648
-6361835.22025457
-5918535.84971674
-3254434.83351377
-924973.876880896
-3852628.51817067
-3674950.78091741
-3182175.67336149
-2896664.83427929
-2743578.4574743
-2774354.1559169
-3089684.82567623
-3748285.23507294
-4879240.95045502
-6484858.86013208
-8251302.28783511
-9848753.07805189
-10700466.6590746
-10521227.072949
-9497554.93318753
-8118992.44300351
-6702590.96102687
-5763973.8522473
-5319714.37561058
-5293306.14258754
-5457014.66350196
-5680713.49842974
-5791276.02380914
-5861186.80680382
-6012399.65808878
-6236825.71558055
-6341147.0600712
-5865455.88781562
-4383173.69215473
-1827539.76256506
-3725962.02121671
-3584054.95473991
-3108974.76805255
-2829078.41642937
-2675786.24693697
-2705624.7120422
-3023691.99136216
-3682166.90319307
-4813600.85205749
-6422918.47984628
-8198781.29904653
-9801837.24185331
-10656066.7495573
-10475687.4471486
-9447819.49611892
-8065208.97084656
-6646531.07027809
-5707317.60122196
-5264628.47827248
-5241208.14238654
-5408001.62619439
-5634390.44227692
-5746971.14749688
-5817939.19416455
-5969018.53701225
-6196529.13774111
-6312883.96980688
-5815584.85143321
-5649075.50917728
-2878662.02538725
-3674574.61544587
-3487560.75306275
-3027693.51983689
-2754081.25256777
-2601448.97375398
-2631045.77040384
-2951362.4120547
-3610117.61269764
-4743345.66551116
-6354335.14744797
-8139710.67256965
-9747802.40611449
-10604123.9297818
-10422492.3661765
-9390504.6324799
-8004138.03282882
-6583558.12284913
-5643854.70011359
-5202697.84715439
-5182129.34974223
-5351814.35906095
-5580703.55428565
-5695214.30345477
-5767174.48021771
-5918058.94339344
-6148506.8144803
-6276626.556343
-5768796.55768974
-5578816.42197893
-3121423.56030541
-3638736.105524
-3383764.29655797
-2938906.153133
-2671795.25177646
-2520419.87224215
-2550289.20618845
-2872630.97868423
-3532060.17830675
-4668417.23160572
-6278750.36598135
-8073908.9416559
-9686542.59869817
-10544633.2265218
-10361683.5989461
-9325649.41039827
-7935801.37897844
-6513668.36429459
-5573545.03190811
-5133858.07516877
-5115996.43617605
-5288381.47684578
-5519574.97228469
-5635938.39376819
-5708834.67910752
-5859461.32393137
-6092603.41938854
-6232185.29119182
-5723806.59816634
-5659087.52467075
-3576544.21150158
-3581315.04743738
-3270490.35372943
-2842468.48351885
-2582068.07437827
-2432791.63397385
-2463131.70381834
-2787385.07597504
-3447888.22828334
-4588592.97834793
-6195902.41922326
-8001157.48528236
-9617915.42397273
-10477513.371431
-10293227.3878624
-9253220.87087286
-7860156.62555834
-6436806.49758861
-5496306.48586774
-5058009.32225944
-5042699.67934379
-5217589.54287727
-5450881.08945906
-5569020.3934943
-5642800.43482778
-5793103.04152234
-6028610.80876507
-6179209.4922571
-5678552.57884433
-5701991.67576379
-3986112.80453989
-3498603.21442474
-3147607.86321877
-2738139.01981977
-2484717.95521523
-2338670.11593771
-2369381.37560355
-2695480.05280363
-3357456.87574715
-4503410.70807362
-6105681.70383235
-7921250.28481696
-9541735.21328876
-10402648.0675257
-10217051.1521892
-9173149.26675753
-7777127.15905072
-6352885.42544852
-5412027.08145191
-4975022.05730118
-4962098.04920796
-5139289.32006966
-5374465.23908206
-5494300.23201296
-5568913.09434398
-5718821.65086325
-5956284.37721243
-6117299.74160604
-5630922.85788088
-5310278.63164807
-4130897.50627372
-3396632.84822283
-3016398.69658893
-2625646.7333866
-2379548.75180539
-2238148.44728732
-2268850.53787528
-2596750.85254854
-3260589.87270086
-4412108.87376632
-6008219.5368893
-7834014.05892112
-9457795.01744667
-10319894.5565974
-10133054.2131137
-9085336.97192251
-7686610.74873632
-6261795.97275801
-5320576.19782007
-4884751.10872501
-4874034.64317978
-5053306.88849229
-5290149.73287414
-5411595.14701752
-5486988.95070578
-5636429.61074841
-5875372.98946745
-6045994.95493426
-5579050.11800323
-4383703.15647322
-3973462.63969108
-3266867.80061037
-2877241.36425559
-2504805.69229156
-2266372.70845154
-2131274.62718684
-2161338.68305811
-2491019.70574279
-3157068.96720689
-4313618.95064479
-5903925.46784888
-7739322.34741839
-9365868.18904047
-10229092.6527768
-10041115.9371039
-8989666.12096807
-7588485.55633961
-6163410.37569612
-5221807.43881154
-4787038.17346398
-4778339.97830397
-4959455.44307117
-5197742.2126122
-5320706.77391616
-5396827.41616783
-5545722.48499011
-5785626.82830206
-5964965.73228206
-5521642.51686602
-3705312.43501399
-3556851.55660232
-3103106.89528143
-2729915.42095657
-2375528.66679923
-2145039.29952256
-2017960.13369092
-2046625.5130221
-2378106.26481666
-3046626.17432472
-4206689.51074773
-5793433.70664505
-7637085.13230659
-9265715.76759584
-10130069.811628
-9941100.62242948
-8886002.68749005
-7482613.51230318
-6057585.6790004
-5115562.1918193
-4681716.20165272
-4674836.88145122
-4857546.80409834
-5097041.9218081
-5221427.21497387
-5298217.46790205
-5446485.72517366
-5686802.4471426
-5873882.1952134
-5457478.15336671
-3266623.90568397
-3128691.6970055
-2915590.72553508
-2573770.00070899
-2237826.56879044
-2015287.97859958
-1898060.03161045
-1924472.70346146
-2257837.3548137
-2928951.29758498
-4090164.71477246
-5677401.92530388
-7527210.90129441
-9157093.00698312
-10022646.9361584
-9832861.48692753
-8774200.08975319
-7368843.45325928
-5944165.70212538
-5001671.3304212
-4568611.94620619
-4563344.0532149
-4747391.89187793
-4987844.06943099
-5113543.83141277
-5190943.37042776
-5338500.46743037
-5578668.15759405
-5772313.12443613
-5385424.28153389
-2817055.80191771
-2862398.54199361
-2717574.43265157
-2408604.1096408
-2091743.20442878
-1876971.76111539
-1771379.63271462
-1794636.9181399
-2130049.36050111
-2803747.47829649
-3963347.40456078
-5556180.84345831
-7409544.5828717
-9039759.42347285
-9906643.53120989
-9716243.72724888
-8654102.26054027
-7247013.66865266
-5822982.62124528
-4879957.53783993
-4447548.29906609
-4443678.99691456
-4628801.89634399
-4869943.65675565
-4996843.74992567
-5074789.09932019
-5221548.67514658
-5461010.80129198
-5660110.91966565
-5304480.22107309
-2392581.87970211
-2679685.98828641
-2512356.30698713
-2234533.47179782
-1937217.40558136
-1730533.62103041
-1637604.7182136
-1656907.45904763
-1994586.91183447
-2670810.11170398
-3826286.21087102
-5429482.28028402
-7283809.96000677
-8913490.36436847
-9781882.65027409
-9591087.71713708
-8525546.39465942
-7116954.35675536
-5693859.03116333
-4750236.82260035
-4318346.66994154
-4315660.6142013
-4501590.79544786
-4743139.2117137
-4871117.76426378
-4949543.42552962
-5095417.80159391
-5333641.28770612
-5537240.82671565
-5213878.74501725
-2255107.48048708
-2471967.09197676
-2296925.57990899
-2051865.32945652
-1774144.63890193
-1576617.13002084
-1496336.53423462
-1511177.50687561
-1851316.58278871
-2530031.21490813
-3679835.45562368
-5296248.42974333
-7149595.78868874
-8778085.00796409
-9648194.52414494
-9457231.94990665
-8388366.49472365
-6978490.1864294
-5556609.09483465
-4612319.96317909
-4180828.8796759
-4179111.31333568
-4365578.72049151
-4607236.49696398
-4736164.42882944
-4815003.78995205
-4959905.5567876
-5196387.3005651
-5403611.59008257
-5110285.29160337
-2198719.55752124
-2215836.43064942
-2070630.15273491
-1861210.70326154
-1602536.62791469
-1415307.93142378
-1347216.65378177
-1357541.42339983
-1700149.45939023
-2381365.60365572
-3525350.6579028
-5154856.05671955
-7006410.08596682
-8633370.50421129
-9505419.17581576
-9314516.10656949
-8242396.29132094
-6831442.98500438
-5411040.22108911
-4466014.34028707
-4034819.37745282
-4033854.41058322
-4220594.59286873
-4462051.97050968
-4591793.65491479
-4670980.8503612
-4814824.70272445
-5049110.73895927
-5259108.22583426
-4994182.73966289
-1973147.07529324
-1961656.8934665
-1840309.90034864
-1663021.51826204
-1422475.87302679
-1246241.0783733
-1189871.04149127
-1196359.6655312
-1541054.10246943
-2224684.58477391
-3364222.50652006
-5003615.3811297
-6853787.47975712
-8479199.22851761
-9353407.61234564
-9162784.42763096
-8087472.66678398
-6675634.3167767
-5256955.04297987
-4311125.6494103
-3880147.31234934
-3879710.83418681
-4066478.34625983
-4307416.17710231
-4437830.75660031
-4517302.8035463
-4660007.55423045
-4891705.2685569
-5103626.21064916
-4865891.94916006
-1806225.27492397
-1817021.21187267
-1614295.84665538
-1457522.39381518
-1234172.17898132
-1069054.0016291
-1023917.52924519
-1028211.30649049
-1374050.1395937
-2059772.2807423
-3197250.41027469
-4841382.06178113
-6691396.18113306
-8315443.3933536
-9192023.36423047
-9001888.95390654
-7923439.57587903
-6510888.64430301
-5094153.07590943
-4147459.38973082
-3716648.13952841
-3716510.49205018
-3903084.40534772
-4143177.18609655
-4274119.68416343
-4353819.23025348
-4495310.12872511
-4724084.90334682
-4937134.61246157
-4725973.64438546
-1847396.18504273
-1726605.26950753
-1386377.81440395
-1246047.05004037
-1038194.7773423
-883517.324179416
-849065.827105981
-853706.714658434
-1199185.08337866
-1886505.68934085
-3023886.16010655
-4668224.036183
-6519090.85442299
-8141992.48250548
-9021146.26765001
-8831693.90272944
-7750152.26356085
-6337037.18200252
-4922433.44635108
-3974823.53509381
-3544165.74645308
-3544103.01639181
-3730285.11769312
-3969203.54896722
-4100527.01773461
-4180405.53168943
-4320616.78454045
-4546191.76227646
-4759660.67464654
-4575647.01822905
-1819672.10567737
-1441361.49439024
-1138604.00289438
-1031175.26210186
-835344.94120819
-689685.216188784
-665261.783906144
-673274.665513424
-1016500.6866563
-1704888.8956109
-2842417.40637998
-4485361.70730175
-6336874.33197692
-7958758.86204095
-8840677.3190186
-8652079.61816873
-7567482.15822974
-6153921.58350044
-4741598.05055878
-3793031.02994963
-3362554.42359919
-3362356.13248149
-3547973.35197752
-3785388.13130253
-3916945.60615431
-3996966.5819837
-4135844.44000081
-4357997.87047991
-4571273.81568529
-4416478.86910164
-1570879.89768954
-871802.876149609
-870085.3564351
-814591.909411651
-626393.317252978
-487953.331182529
-472773.063439389
-487086.977861607
-825998.633097451
-1514721.25196438
-2652067.60819991
-4293551.50111338
-6144793.36826013
-7765695.42116669
-8650545.35447466
-8462947.60306803
-7375322.51385544
-5961399.16519678
-4551455.18202687
-3601903.20354172
-3171681.66125993
-3171153.89841432
-3356065.17417087
-3591651.25611021
-3723298.41514112
-3803441.44016753
-3940946.85827414
-4159507.8371167
-4372128.07525096
-4250518.50956168
-1207985.93587555
-288285.874846084
-608830.259440435
-595858.345822173
-412121.155156261
-279039.518756787
-272183.266395189
-295154.297899706
-627627.813296964
-1315747.70248953
-2453368.15602392
-4092695.23307233
-5942819.62901026
-7562814.85883471
-8450712.86007393
-8264225.21055688
-7173594.17705133
-5759347.90310468
-4351824.51921282
-3401274.12617982
-2971430.33342033
-2970399.33497125
-3154502.27145632
-3387944.85987976
-3519542.54852751
-3599806.77113246
-3735919.03563815
-3950761.14303656
-4162082.00667895
-4077237.54365427
-743298.193953832
-10234.0323321275
-383770.562228813
-374431.533855919
-193531.313784843
-63918.525621214
-64333.9018552923
-97484.7713563226
-421302.133219629
-1108027.47133146
-2246127.73557008
-3883473.4175336
-5730870.63929529
-7350207.67122041
-8241178.48532489
-8055871.62805366
-6962252.56707577
-5547672.76173739
-4142543.04380224
-3190995.65273911
-2761701.95910599
-2760016.958078
-2943254.96616396
-3174255.48093143
-3305672.8929814
-3386081.0005196
-3520800.74887078
-3731838.24608865
-3941104.90064285
-3891221.25137734
-444088.452070409
-53502.5229450759
-195841.502819981
-151916.13749589
27944.0994055888
156226.583188931
149744.559061427
105803.874021897
-206965.85728102
-891865.948319651
-2030601.99057183
-3666185.48197475
-5508921.03992376
-7128060.1626816
-8021975.74550539
-7837884.52121231
-6741295.58820883
-5326313.14717318
-3923472.56914166
-2970944.01660333
-2542420.15284629
-2539956.17037857
-2722324.38447532
-2950608.38854779
-3081726.31486569
-3162327.69452289
-3295680.36890167