/*--------------------------------*- C++ -*----------------------------------*\
  =========                 |
  \\      /  F ield         | OpenFOAM: The Open Source CFD Toolbox
   \\    /   O peration     | Website:  https://openfoam.org
    \\  /    A nd           | Version:  6
     \\/     M anipulation  |
\*---------------------------------------------------------------------------*/
FoamFile
{
    version     2.0;
    format      ascii;
    class       volScalarField;
    location    "0.0052";
    object      ddt0(rhoY);
}
// * * * * * * * * * * * * * * * * * * * * * * * * * * * * * * * * * * * * * //

dimensions      [1 -3 -1 0 0 0 0];

internalField   nonuniform List<scalar> 
18800
(
5.31603337883868e-16
8.76523684155448e-16
-1.83524960956715e-16
-5.43526348699769e-15
-1.09377357521095e-14
-1.50363517413634e-15
3.24458715368232e-14
2.77362022644277e-12
5.18924350298415e-16
8.62262308754133e-16
-1.50831598180173e-16
-5.28285914819366e-15
-1.07605175764622e-14
-1.87248574715041e-15
3.19911999833138e-14
-8.92464497078984e-14
4.89758134545108e-16
8.28591441868903e-16
-8.27837544008604e-17
-4.94261276388508e-15
-1.03437532085088e-14
-2.27766135750264e-15
2.94966995619224e-14
1.23498188805769e-13
4.4603428586029e-16
7.76081206055262e-16
7.63754336988021e-18
-4.44447040809404e-15
-9.69370863249956e-15
-2.85196185501027e-15
2.63907694047549e-14
5.5305242892092e-14
3.90731110507548e-16
7.06697043809442e-16
1.05347258977955e-16
-3.83122081341208e-15
-8.83350707994151e-15
-3.44803388090297e-15
2.24267076000001e-14
5.90929054110432e-14
3.28632984595113e-16
6.23672457015841e-16
1.95996935710351e-16
-3.15186603377056e-15
-7.80150846387629e-15
-3.97295981337508e-15
1.80217324254468e-14
5.11640082751106e-14
2.63991796639018e-16
5.31190104986187e-16
2.67982965323042e-16
-2.45579468984645e-15
-6.64791092504502e-15
-4.3457706637158e-15
1.34879586024858e-14
4.35024291166455e-14
2.00104194895301e-16
4.34004030635466e-16
3.13644839396723e-16
-1.78790705615253e-15
-5.43050186435325e-15
-4.50481819421205e-15
9.12680312707788e-15
3.61196102655584e-14
1.40104225661157e-16
3.37041690044304e-16
3.29699786626165e-16
-1.18505242831854e-15
-4.20977063353527e-15
-4.42093207791177e-15
5.20599569049033e-15
2.84716783219916e-14
8.67256717716188e-17
2.44998430468035e-16
3.17030201241154e-16
-6.73770569298774e-16
-3.04390590105112e-15
-4.09708565387624e-15
1.91525874408796e-15
2.10875420838148e-14
4.21227141923318e-17
1.61975404657778e-16
2.79961689856052e-16
-2.69327503418809e-16
-1.98412496745996e-15
-3.56424308258833e-15
-6.36236667317664e-16
1.43174617802006e-14
7.70555015939519e-18
9.11590787473487e-17
2.25219031677264e-16
2.40492453715718e-17
-1.07077724466986e-15
-2.87579736329792e-15
-2.41488002123398e-15
8.34129773561257e-15
-1.6100470014984e-17
3.46003558649731e-17
1.6072456086573e-16
2.11902849495138e-16
-3.30611199962357e-16
-2.09930103097246e-15
-3.45481543552663e-15
3.32321148555349e-15
-2.98792314169248e-17
-6.90607623112676e-18
9.44361207205728e-17
3.07492788941424e-16
2.24518340882611e-16
-1.30695709339472e-15
-3.84515729980398e-15
-6.17117636207137e-16
-3.49757437952101e-17
-3.38066700307223e-17
3.33395027260349e-17
3.29249177102093e-16
5.97405060480417e-16
-5.66501504830175e-16
-3.71452920608015e-15
-3.46138923009085e-15
-3.32586733815303e-17
-4.76421367108431e-17
-1.72648715259335e-17
2.9808357827719e-16
8.03795520047006e-16
6.64496190888718e-17
-3.21220611573881e-15
-5.26069849429076e-15
-2.68723101333958e-17
-5.07845837826055e-17
-5.41650931150118e-17
2.34816088340247e-16
8.69512455224584e-16
5.5373096565092e-16
-2.49004719589705e-15
-6.12590762320418e-15
-1.79841421099425e-17
-4.60937550323745e-17
-7.63032803651176e-17
1.58088493632046e-16
8.2680170293853e-16
8.77151727015093e-16
-1.68702858779423e-15
-6.2146692881138e-15
-8.54339913504114e-18
-3.65546451544217e-17
-8.45406083552967e-17
8.28041083051576e-17
7.10404436910182e-16
1.03818089517211e-15
-9.17698742549339e-16
-5.7136531161446e-15
-9.37358299497463e-20
-2.49304290566276e-17
-8.12342424429323e-17
1.93469376600284e-17
5.53814274340272e-16
1.05515426894857e-15
-2.64856865729884e-16
-4.81944886237928e-15
6.33867574714526e-18
-1.34942095883746e-17
-6.96309933541072e-17
-2.65640507789378e-17
3.8619666899981e-16
9.58660290828456e-16
2.23006669430885e-16
-3.72035458270829e-15
1.02724819247235e-17
-3.85887935075083e-18
-5.33057448803362e-17
-5.33759777911666e-17
2.30219884140917e-16
7.85964533291923e-16
5.29884308996207e-16
-2.58095836059091e-15
1.17197592056289e-17
3.07528690721089e-18
-3.5578791511381e-17
-6.28801568916779e-17
1.01003495349368e-16
5.7533964962736e-16
6.6689096168916e-16
-1.53089570166922e-15
1.10747801111804e-17
7.0698423308157e-18
-1.91461865409485e-17
-5.88909065132041e-17
6.14066530963152e-18
3.61147570976003e-16
6.64586438643174e-16
-6.58598092644798e-16
8.96758343954929e-18
8.4142194343392e-18
-5.81973010811028e-18
-4.63151362769212e-17
-5.33268366911108e-17
1.70222476992268e-16
5.64361204356462e-16
-1.0392753747317e-17
6.11250688282164e-18
7.74280890411485e-18
3.52207653252642e-18
-2.99427732195499e-17
-8.14071054294926e-17
1.99335782826323e-17
4.10172899434047e-16
4.057347900527e-16
3.16752312661121e-18
5.8400769767585e-18
8.82904722252612e-18
-1.3754973812687e-17
-8.51742694431174e-17
-8.21009264393513e-17
2.41706116611268e-16
6.12498005658124e-16
6.36811370963014e-19
3.46634592820513e-18
1.06717826546101e-17
-5.14494884502452e-19
-7.29323552816295e-17
-1.36804250241329e-16
8.96542912033041e-17
6.52947015758521e-16
-1.17908323302701e-18
1.23144969331721e-18
9.98034498278433e-18
8.35580288325137e-18
-5.27383362572454e-17
-1.514894883725e-16
-2.661388362015e-17
5.79334964064956e-16
-2.18530216053732e-18
-4.73098849157159e-19
7.79539732593888e-18
1.26834851748918e-17
-3.10726763756247e-17
-1.37176892447616e-16
-9.91147736301967e-17
4.43299731869598e-16
-2.45745945117943e-18
-1.48376053801616e-18
5.0588545170441e-18
1.31868362972716e-17
-1.2429292960404e-17
-1.05918707869076e-16
-1.29514333500163e-16
2.88774145995913e-16
-2.18286167721018e-18
-1.82904819341441e-18
2.48344664085489e-18
1.10295832980814e-17
8.62912366199245e-19
-6.87224015294059e-17
-1.26154050924325e-16
1.47832976280005e-16
-1.59472603393189e-18
-1.66575523377869e-18
4.9810091047916e-19
7.56166789916498e-18
8.31132223904674e-18
-3.39960461487215e-17
-1.0079304601227e-16
3.92719194700663e-17
-9.14094180048709e-19
-1.2066461862449e-18
-7.38196880669704e-19
3.91975631632411e-18
1.075977861301e-17
-6.94395853475366e-18
-6.55510624031455e-17
-3.02628408860249e-17
-3.09414595354661e-19
-6.57288840131644e-19
-1.27507074063575e-18
8.98134186548772e-19
9.73298224320269e-18
1.0371101465339e-17
-3.05847273816291e-17
-6.34568118279735e-17
1.22140331249217e-19
-1.73131608015345e-19
-1.28791302495532e-18
-1.11277138397129e-18
6.88961151868188e-18
1.84027335088757e-17
-2.74028967637468e-18
-6.87395503314354e-17
3.53034275777541e-19
1.59290855679202e-19
-9.95431572440939e-19
-2.06643460187598e-18
3.64617258404987e-18
1.92152565158492e-17
1.48253357201328e-17
-5.67406908270857e-17
4.0904909288627e-19
3.19572648676233e-19
-5.96739724523463e-19
-2.159669903991e-18
9.42221156866637e-19
1.55527450641418e-17
2.21684595291503e-17
-3.74434627069595e-17
3.45927422093268e-19
3.35864594619982e-19
-2.34114738845052e-19
-1.71544129498513e-18
-7.88697785975534e-19
1.00409339219878e-17
2.15351279934919e-17
-1.8370114690464e-17
2.26355163769439e-19
2.61176373616898e-19
1.83518536133804e-20
-1.05532351825253e-18
-1.52712853158535e-18
4.67962470292342e-18
1.61533787079724e-17
-3.88956975928581e-18
1.02662982885527e-19
1.51311273675136e-19
1.45490560645681e-19
-4.26257316526279e-19
-1.51340543874659e-18
6.40977641357239e-19
9.16816648726355e-18
4.54968612434514e-18
7.76045106668271e-21
4.95223345880624e-20
1.70972413116858e-19
2.91521249038024e-20
-1.08351047087183e-18
-1.68525001414173e-18
2.92764871610865e-18
7.60046971101899e-18
-4.5970079093205e-20
-2.02408735223765e-20
1.35173389576137e-19
2.68970879760248e-19
-5.43139442280096e-19
-2.48290339595266e-18
-1.30665898176245e-18
6.99837427210175e-18
-6.20846324257119e-20
-5.24886617566348e-20
7.73017000997507e-20
3.24481009185179e-19
-9.74308426834339e-20
-2.23819284108872e-18
-3.28195743848738e-18
4.66830923597163e-18
-5.28991121125483e-20
-5.45430011795108e-20
2.49971631956923e-20
2.63063051682861e-19
1.6506789715955e-19
-1.49585310780216e-18
-3.44345165768153e-18
2.12740696759299e-18
-3.25702131569679e-20
-3.93482563745287e-20
-8.54282241604752e-21
1.55298444738943e-19
2.49311179091647e-19
-6.93453475604219e-19
-2.54682982068753e-18
2.42542201752668e-19
-1.22938651416179e-20
-1.93783157239011e-20
-2.20470539256003e-20
5.39587536750688e-20
2.12507212417815e-19
-8.84942097169525e-20
-1.32625694263265e-18
-7.28760004889623e-19
1.75332992051886e-21
-3.06111047554284e-21
-2.11607567168073e-20
-1.36474883099987e-20
1.23976115500963e-19
2.36118063265741e-19
-2.93106567983852e-19
-9.37894357895932e-19
8.13741982383209e-21
6.12131258821254e-21
-1.34727559864085e-20
-4.28449615473194e-20
3.78961804119058e-20
3.19264309720007e-19
3.231888677745e-19
-7.08052707143051e-19
8.5351407334172e-21
8.59722902275882e-21
-5.12214285189619e-21
-4.31055011966245e-20
-1.76558264255682e-20
2.55391124573455e-19
5.25902796674406e-19
-3.483726884519e-19
5.79683722982596e-21
6.82914852801364e-21
5.84588810701144e-22
-2.87267753959801e-20
-3.8360265734573e-20
1.39900113494975e-19
4.49331341360721e-19
-5.67749528266383e-20
2.4590664990393e-21
3.55920721011853e-21
2.95541604277322e-21
-1.19740730075232e-20
-3.42495418387455e-20
3.81978189818369e-20
2.5719488279937e-19
9.4735772180208e-20
1.99261270454128e-23
7.25712780157191e-22
2.87808639274292e-21
8.64432721970664e-23
-1.94494736637322e-20
-2.16682002595287e-20
7.44272555874146e-20
1.23674375206967e-19
-1.09620730752823e-21
-8.51527399371164e-22
1.70454744665686e-21
5.56441261091473e-21
-5.07217979917345e-21
-4.05069676695775e-20
-3.81516598413836e-20
8.55394453091442e-20
-1.17167892273771e-21
-1.23515871658787e-21
5.00994745733724e-22
5.91728312981361e-21
3.51458960875152e-21
-3.34848893949499e-20
-7.53427493491938e-20
3.30010634585657e-20
-7.39654784751975e-22
-9.14079457532269e-22
-2.23729889093227e-22
3.76688848039766e-21
5.95460207582049e-21
-1.74135838606913e-20
-6.27641542004545e-20
-3.69041106591978e-21
-2.51590724814879e-22
-4.00296472092182e-22
-4.33327642863216e-22
1.32428999945458e-21
4.55478211964985e-21
-3.60619041113856e-21
-3.20517944372669e-20
-1.74625104293368e-20
6.03562808818085e-23
-1.22739710915246e-23
-3.29476987750141e-22
-2.61666465314116e-22
1.99907875604313e-21
3.64360167719012e-21
-5.50265693791078e-21
-1.51524901616108e-20
1.63710168409078e-22
1.55866626004538e-22
-1.38173756286805e-22
-8.13472593650341e-22
3.01087152172445e-23
5.06866243165533e-21
8.1420972530954e-21
-7.04134631280739e-21
1.33166830502134e-22
1.55930128591356e-22
2.70011974139973e-24
-6.85219502605371e-22
-8.09873634785527e-22
3.43073048610516e-21
1.02938175136804e-20
-3.28060023189534e-22
6.03107446861184e-23
8.49201956007485e-23
5.70159030205656e-23
-3.26786189699268e-22
-7.82398118424067e-22
1.24620027260044e-21
6.56152043095113e-21
2.53542288088885e-21
3.58928031496681e-24
1.71125934887531e-23
5.02817991080943e-23
-3.51182500324075e-23
-4.0136838998966e-22
-1.73117848943951e-22
2.0401306897353e-21
2.38513012687261e-21
-1.98861540582951e-23
-1.73862799823228e-23
2.25924121387812e-23
9.42025659050167e-23
-5.59150442193419e-23
-6.29385444444992e-22
-7.04711056914063e-22
1.0866199295053e-21
-1.89055513751167e-23
-2.19234150704882e-23
6.77064914206291e-25
9.75045398933201e-23
1.05925228426708e-22
-4.9304811113803e-22
-1.42070152374343e-21
6.91496446882136e-24
-8.98530548955407e-24
-1.2535476601483e-23
-7.70968041197792e-24
5.02339979179856e-23
1.1351906082138e-22
-1.97543112463991e-22
-9.82822109836799e-22
-4.08698473716884e-22
-7.49877242054785e-25
-2.62410444987131e-24
-6.57780678352369e-24
7.45924094073682e-24
5.71574459174806e-23
8.75399225106174e-24
-3.18561190890984e-22
-3.38555057621104e-22
2.55638632705009e-24
2.3017629012187e-24
-2.55581478408428e-24
-1.16189058658544e-23
6.13028164466639e-24
7.60098192546349e-23
8.83904951731738e-23
-1.21513229851924e-22
2.30804884151582e-24
2.76850003794981e-24
2.74655112356158e-25
-1.20053316126596e-23
-1.53728913472109e-23
5.80139737205654e-23
1.84526516182977e-22
2.71256332836921e-23
9.38345060407177e-25
1.38666960107079e-24
1.07391753904065e-24
-5.53991039895321e-24
-1.42451078153862e-23
2.00356138929591e-23
1.16018173399055e-22
6.40479687545925e-23
-4.95151378620017e-26
1.35828669594284e-25
7.04578768875196e-25
-2.82929272679956e-25
-5.7064424984265e-24
-3.62480676170811e-24
2.74726364167959e-23
3.85886008562008e-23
-3.3999317981175e-25
-3.50999120638197e-25
1.59150195988753e-25
1.57730374996342e-24
4.63858585105035e-25
-9.03351954038003e-24
-1.74991681377054e-23
6.38724390101816e-24
-2.28998310509134e-25
-2.96714785667508e-25
-1.12298248998557e-25
1.23260435146662e-24
2.1794642526157e-24
-5.35822267270845e-24
-2.15597384670765e-23
-8.30257975537439e-24
-5.50345647146987e-26
-9.88726602568365e-26
-1.2559814755038e-25
3.83031634594307e-25
1.3856195644612e-24
-1.00276775068515e-24
-9.77924845529164e-24
-7.82152849819711e-24
3.19482015264843e-26
2.30112601013607e-26
-4.83711226308558e-26
-1.0704264821761e-25
2.75656352019977e-25
8.99337711505804e-25
-1.4136540328254e-25
-2.62502465337698e-24
3.75606926042799e-26
4.47833462552587e-26
6.74451472573686e-27
-1.81707401922101e-25
-2.31527379818314e-25
8.74381714719042e-25
2.80285252591171e-24
7.03849579997252e-25
1.50257525151048e-26
2.22096719594157e-26
1.84437560482396e-26
-8.53896145995649e-26
-2.27518168427661e-25
3.01475838382755e-25
1.83869796164809e-24
1.23314632255413e-24
-1.20330883183497e-27
1.16684168132624e-27
9.16071330765911e-27
-2.59195518725625e-27
-7.4823546214244e-26
-5.31706440386783e-26
3.53965082939247e-25
5.47506763329564e-25
-4.97206092348144e-27
-5.53919316413811e-27
5.02546660785949e-29
2.11266077951317e-26
1.7749551564691e-26
-1.10833084373515e-25
-2.88993657937092e-25
-2.69581259060792e-26
-2.79137306292821e-27
-3.74728195780764e-27
-2.68297161204158e-27
1.25263405175197e-26
2.98552802943308e-26
-4.94144051451526e-26
-2.60125475059084e-25
-1.66216130951312e-25
-5.08441839498404e-28
-8.87915330554161e-28
-1.70472997403184e-27
1.33939110111302e-27
1.16469295994152e-26
3.76543628822152e-28
-7.02255981362817e-26
-8.40714837206808e-26
2.29334740959205e-28
2.68266478470218e-28
-4.08241754232345e-28
-2.55182468734659e-27
-1.50025920630866e-27
1.19247777913541e-26
2.71008189017518e-26
-1.52431777975443e-27
8.08313337897259e-29
1.93046014418367e-28
4.99713218121261e-29
-1.77600673539272e-27
-3.75302937244737e-27
5.74966785112088e-27
3.06000120307973e-26
2.00740748765735e-26
-1.48484646660093e-28
-1.02671464146959e-28
-1.65376970289089e-29
-4.12768214964608e-28
-1.6150734011599e-27
-7.12997124211259e-29
8.50861398286517e-27
9.93541071172961e-27
-1.96598275939336e-28
-2.00557945954648e-28
-1.29461275029919e-28
9.61694595262186e-29
-1.00694845120668e-29
-1.41066287493178e-27
-3.0478379079954e-27
-2.12208642209014e-28
-1.30443639856652e-28
-1.42207990309369e-28
-1.29448321814375e-28
5.84072777314682e-29
2.7555650232896e-28
-6.86069544498612e-28
-3.30649392398312e-27
-2.41874625932855e-27
-5.04884096794052e-29
-5.46519671801821e-29
-6.41248780835861e-29
-3.13353076783935e-29
8.2501297420411e-29
-3.61606141074767e-29
-8.06572056289592e-28
-1.01195098479722e-27
5.34355319958145e-30
6.03973137936793e-30
-4.90522606764212e-31
-2.57781829543475e-29
-2.48782164387054e-29
1.2146221441255e-28
3.47308172401544e-28
1.02157394069417e-28
3.79262122761694e-29
3.8976248247168e-29
3.81554936402347e-29
2.14858004647257e-29
-9.94473790414895e-31
7.94002328764713e-29
3.20535296965039e-28
2.70780655515211e-28
5.43857637498493e-29
5.45829082816559e-29
5.54086465904656e-29
5.38480260322247e-29
4.52984601737126e-29
4.74389353632388e-29
9.32318639579156e-29
1.19915061868089e-28
5.86442438240419e-29
5.84568908150344e-29
5.88366796063799e-29
6.12853269201933e-29
6.2394685869556e-29
4.83987709879243e-29
1.98540163122842e-29
3.73546454188773e-29
5.33801134715453e-29
5.32222991230327e-29
5.31639004048417e-29
5.42470733546645e-29
5.61528257261775e-29
5.11189515516255e-29
3.35827842240437e-29
3.50095949710501e-29
4.18459143677508e-29
4.17784328964749e-29
4.16649704917934e-29
4.15872915786019e-29
4.20609407506179e-29
4.2990108428367e-29
4.26085963660483e-29
4.05284748888201e-29
2.76230345908977e-29
2.75948784131156e-29
2.75523737308178e-29
2.73524211790676e-29
2.72471898911492e-29
2.85167359298454e-29
3.15270196564345e-29
3.07808861258705e-29
1.38443378986815e-29
1.38295858461928e-29
1.38318195350316e-29
1.37963272932094e-29
1.3736173551395e-29
1.4047454575099e-29
1.50675498528624e-29
1.50945425465914e-29
2.70065856745156e-30
2.69740215183569e-30
2.71118194865429e-30
2.74532424659629e-30
2.76370432125478e-30
2.67483669052882e-30
2.49136387338421e-30
2.50509132218635e-30
-4.75338664018692e-30
-4.74607090217395e-30
-4.73197780004716e-30
-4.70622805187297e-30
-4.69143934448015e-30
-4.77826665923774e-30
-5.01326870404775e-30
-5.0782819321123e-30
-8.56460755626495e-30
-8.55132485882136e-30
-8.53894599722094e-30
-8.52889944067935e-30
-8.53206536133658e-30
-8.56239947360664e-30
-8.62597253523612e-30
-8.66910824095322e-30
-9.6293227297056e-30
-9.61466872446475e-30
-9.60439714335658e-30
-9.59829411272225e-30
-9.60147859485428e-30
-9.60474663518585e-30
-9.59760984131774e-30
-9.59578319265699e-30
-9.27582855418979e-30
-9.26211177677881e-30
-9.25367504079872e-30
-9.245479408347e-30
-9.23872225967907e-30
-9.22791049434562e-30
-9.20822543770554e-30
-9.17926030683525e-30
-8.78559557985197e-30
-8.77284861248114e-30
-8.76534080621528e-30
-8.7551058696302e-30
-8.74128607715988e-30
-8.72253204600987e-30
-8.69980738377662e-30
-8.66095130255805e-30
2.12205632548314e-12
-1.88786504798408e-12
9.77799459255457e-13
1.03641827968618e-12
3.37840830824549e-12
-5.09415538970107e-12
-3.40073808482734e-12
5.28943956262803e-12
1.48753649513431e-12
1.04198568257416e-12
3.00057736078673e-12
-2.48148963241291e-12
1.85259643860754e-12
1.01392199675255e-12
3.26209050944051e-12
-9.1452419832948e-12
-3.34604616002728e-12
5.12110643620455e-12
3.49968239353278e-12
3.06931175761197e-12
-2.62697300450732e-12
1.66643325898663e-12
-4.62254818064779e-12
-1.98282207558115e-12
3.99534153884102e-12
8.47447108164319e-13
-1.67546212432515e-12
-4.39121250994218e-12
-5.35147717629072e-12
6.92023837277888e-12
-1.3565255626965e-12
3.16912681121862e-13
-5.98213124816708e-13
1.1993193273036e-14
-1.43107489478854e-12
-1.24749783926887e-12
1.45024406890622e-12
1.67823566610621e-13
-1.01892414275578e-12
-2.67688531493693e-13
-2.02105192631303e-12
1.7565179846528e-13
-1.19722389024758e-12
-4.60008997585914e-14
-2.14100077216302e-12
3.19186068616908e-13
2.2811678288579e-12
-2.67363978770734e-13
-1.61863293189102e-13
-2.03856289937778e-12
1.12299047609682e-13
-1.30321129115839e-12
3.43573539226617e-13
1.34981781025375e-12
-3.7316761208265e-14
-4.79132685975429e-13
-2.03225600451319e-13
1.36499633597765e-13
2.96381236023458e-12
-2.8177514755732e-13
1.86376840307817e-13
-1.36997465658038e-13
-1.40542930293153e-13
-4.90538972882886e-14
-3.99037484314767e-14
5.20839948127336e-13
1.098868252899e-13
-2.49366575809674e-13
-1.54603490634441e-13
5.02109426650951e-14
1.17599343790398e-13
-6.18970495059701e-14
-1.27579734287555e-14
6.0165523243698e-14
9.30714674499577e-14
-1.41087111703438e-13
-2.02630632619224e-13
1.05805741018894e-13
1.08317261543179e-13
2.22000745229517e-13
2.29843775388104e-15
1.146571107149e-13
-1.4751657026124e-13
-1.07329059611489e-13
-1.20851430793591e-14
-1.1734696400141e-13
1.04174446353778e-13
-1.66413420598858e-13
-2.02791778610088e-13
5.88211542938233e-14
2.10486596678743e-14
4.63315660345301e-15
-2.5690061076909e-14
4.18103925188908e-15
1.32201228358612e-13
-3.26080457571135e-14
-8.57603415710027e-14
8.38332670488351e-15
-5.71229924887641e-14
-6.48583942088604e-14
-1.75248897909854e-14
3.18436911894696e-14
1.80799769687102e-14
-3.12001039705529e-14
-2.43588509162392e-14
1.12553984403571e-14
2.8868100747775e-14
-1.12560512895596e-14
5.27041701735916e-14
3.58518591907229e-14
2.48553879445579e-14
-5.36233404180411e-14
-5.4550349029248e-14
1.0659668931938e-15
2.89278734616923e-14
3.83300815214166e-14
-7.10271457625164e-14
-6.28095793215995e-14
-5.9803524183614e-15
-2.32362570400442e-14
5.6989976457635e-14
-1.12189396114555e-14
-5.08986909267933e-14
-2.60229291865897e-14
2.37776668938363e-14
7.53362717946708e-14
5.41326863352918e-14
-6.78875517838389e-14
-8.88445190083101e-14
-4.42917329220228e-14
5.45930303556117e-15
1.28069724962423e-14
-1.29208198325162e-14
4.43820141518494e-15
1.46071225101744e-14
-2.79697747472347e-14
-4.06706095571967e-14
1.73534237877816e-14
4.87698942463591e-14
6.11059187524195e-14
1.87917830030392e-14
-3.3987551751647e-14
-4.04822420750089e-14
-9.19159573779966e-15
1.947660689943e-14
-1.92522448574583e-14
-7.20720603699514e-14
-4.20544104760248e-14
-4.42925286125881e-14
-1.12143880700588e-14
4.97347581063221e-14
-9.9553189145099e-15
-4.84303670498669e-14
-2.00447974259506e-14
4.40071722129302e-14
7.88892556067003e-14
1.84465180903123e-14
-5.75831295266539e-14
-7.86919872955578e-14
-3.92731189204549e-14
6.55931557982643e-15
1.0398174166429e-14
-5.93820818554944e-15
6.94231910507388e-16
6.12883646577659e-15
-1.1787482614226e-14
-1.97240724869196e-14
2.18607094759701e-15
4.23237213904854e-14
5.62591578926032e-14
2.20714561467629e-14
-2.60953590762052e-14
-3.97810776739308e-14
-9.94602217440343e-15
1.11111679257286e-14
-1.08594107764379e-14
-3.54579002485084e-14
-5.52900429595294e-14
-3.7192560850797e-14
-1.07709910696264e-14
4.61215291181394e-14
-5.18970501956015e-15
-4.17996232867563e-14
-1.84137917801274e-14
3.8712003878498e-14
5.95281621603822e-14
1.99238612523063e-14
-4.6799717699727e-14
-7.15019216413273e-14
-3.65985100607599e-14
5.5808985483762e-15
1.12654716414609e-14
-4.3904119105875e-15
-2.95651635643048e-15
5.77070609851492e-15
-5.18822392186916e-15
-1.97625228309848e-14
-2.99588696896226e-15
3.59049871982249e-14
5.14979122590373e-14
2.17417869096187e-14
-2.34728450561799e-14
-3.58501126009719e-14
-9.32404241358587e-15
9.96548574976035e-15
-5.09843283949352e-15
-3.33156509158985e-14
-5.32408909132371e-14
-3.37138413951379e-14
-9.30338793988782e-15
4.1931984526417e-14
-2.54024876154478e-15
-3.64973706192307e-14
-1.83184986229405e-14
3.27540210167338e-14
5.48121059495073e-14
2.01291273743473e-14
-4.0748882068503e-14
-6.32822815568667e-14
-3.27979813406574e-14
5.44143622483738e-15
9.97390289092704e-15
-4.60081882860548e-15
-2.4095736847396e-15
6.68966687282076e-15
-3.60185688870908e-15
-1.81760339294659e-14
-4.94283680555346e-15
2.93446863998649e-14
4.57605431098265e-14
1.99328072190802e-14
-2.01781604028632e-14
-3.02370545342434e-14
-7.63352850168132e-15
9.46511110687973e-15
-4.67348962138021e-15
-3.49328295159523e-14
-4.30445337369332e-14
-2.90481113465271e-14
-7.69745446098197e-15
3.64045363206779e-14
-8.39559417265461e-16
-3.09906246689299e-14
-1.68228772931528e-14
2.67720426743812e-14
4.68328325273421e-14
1.79161696829906e-14
-3.33290213830011e-14
-5.40887609424559e-14
-2.81108483998129e-14
5.17083262094077e-15
8.59475678520463e-15
-3.85049162086606e-15
-2.52697117897246e-15
5.93412047165915e-15
-9.50973923869771e-16
-1.47173070853219e-14
-7.06378306316714e-15
2.25018685177742e-14
3.87987335510551e-14
1.81644001243756e-14
-1.63086748430777e-14
-2.51941175680314e-14
-6.45192518009758e-15
7.51815321902058e-15
-4.36727694751653e-15
-2.83278526728586e-14
-3.6331576003157e-14
-2.42976267091088e-14
-5.38391632770139e-15
3.02187996896251e-14
4.63436344663146e-16
-2.48194794520446e-14
-1.47294439314315e-14
2.09845366047293e-14
3.8831778099087e-14
1.54150842961606e-14
-2.64833110501637e-14
-4.43124093752268e-14
-2.29956305162924e-14
4.60682892929575e-15
7.54073787624845e-15
-2.85140889867883e-15
-2.85387127050479e-15
5.01906423136286e-15
1.36275991368875e-15
-1.13567189018586e-14
-8.33129793591522e-15
1.60326769609087e-14
3.13838547105656e-14
1.58559749576182e-14
-1.26979507233856e-14
-2.03679857978958e-14
-5.20561837328575e-15
5.9735002735247e-15
-2.91938699275337e-15
-2.22402203571098e-14
-3.00693021675022e-14
-1.9245736019495e-14
-2.79824297339372e-15
2.36916538034591e-14
1.11408812474553e-15
-1.86405867086977e-14
-1.17493422132184e-14
1.60048485340846e-14
3.0499171689528e-14
1.20262440062636e-14
-2.02382445482577e-14
-3.42096087018912e-14
-1.77667266022718e-14
3.98954741166473e-15
6.49641654777604e-15
-1.94891508224642e-15
-2.86448926968831e-15
4.00042215688053e-15
2.80329308232136e-15
-8.28506456499234e-15
-8.43123389198371e-15
1.03613005706388e-14
2.38686679551848e-14
1.29134573105503e-14
-9.51249004955204e-15
-1.57025628522841e-14
-3.89982982442781e-15
4.99955806048065e-15
-1.76210222180752e-15
-1.73801829731362e-14
-2.29996733457404e-14
-1.39263493464701e-14
-4.65671462757883e-16
1.70712427641471e-14
1.11689083913173e-15
-1.28284648239354e-14
-8.07113222949157e-15
1.15323355660591e-14
2.15185243601865e-14
8.30418078415356e-15
-1.45148246084623e-14
-2.43284536852786e-14
-1.24654413292486e-14
3.43627005468923e-15
5.41513365718338e-15
-1.11853507256132e-15
-2.56618269420675e-15
2.98749659751054e-15
3.36682984773831e-15
-5.54657439245723e-15
-7.58549305156687e-15
5.74599643905283e-15
1.66422287752649e-14
9.5285822820735e-15
-6.77696883844228e-15
-1.13683039826258e-14
-2.55322581887562e-15
4.19669738467064e-15
-9.94578796794905e-16
-1.26521365163e-14
-1.60255117336338e-14
-8.65873547808098e-15
1.46194968614004e-15
1.07040018953046e-14
5.95145773072055e-16
-7.63336190273834e-15
-4.31100129026399e-15
7.6045702701316e-15
1.30108204347737e-14
4.48711633179509e-15
-9.57519681830198e-15
-1.51046115323e-14
-7.23277956473478e-15
3.01697000453053e-15
4.24524147160206e-15
-4.85286594723819e-16
-2.00161472933461e-15
2.07633052387889e-15
3.18397814387297e-15
-3.25959401182155e-15
-6.06622984597074e-15
2.28430400772006e-15
1.00481342745274e-14
5.91787835630599e-15
-4.59723632830478e-15
-7.39978033861133e-15
-1.15636753623748e-15
3.45366457160685e-15
-4.60051920448073e-16
-8.25294720215865e-15
-9.74052938318474e-15
-3.81707570962876e-15
3.07940062087219e-15
4.9157330955014e-15
-2.85702269117836e-16
-3.26050104248302e-15
-8.49368426990411e-16
4.46403573602111e-15
5.67789400544425e-15
6.65017193128786e-16
-5.60051588141492e-15
-6.92470045567848e-15
-2.26507293871864e-15
2.78067604644648e-15
2.95931955254573e-15
-1.20120455414614e-16
-1.2933919939783e-15
1.29126967926796e-15
2.51026086608802e-15
-1.48014824962276e-15
-4.1622406246122e-15
-5.01839943238583e-17
4.36871135198307e-15
2.33620366814021e-15
-3.00044679541078e-15
-3.82607128775922e-15
2.67219402660851e-16
2.75331224581253e-15
-2.03658162228776e-16
-4.57232094727627e-15
-4.32791383630264e-15
3.52059794458063e-16
4.43644738492152e-15
-2.69845311701253e-17
-1.3227303639418e-15
1.75667096181777e-16
2.13026419239335e-15
2.15937899170749e-15
-3.12618152914111e-16
-2.85667136110209e-15
-2.62864560097721e-15
-1.01345574288681e-16
2.20451142499883e-15
2.72126477893401e-15
1.6012666522476e-15
-2.53044812457572e-17
-5.62245127513518e-16
6.67297706524539e-16
1.58359296745173e-15
-2.05519572941425e-16
-2.15390849644339e-15
-1.37239945590084e-15
-1.94649418784875e-16
-9.51185728818732e-16
-1.93870723943986e-15
-7.33731964556206e-16
1.64576664483693e-15
2.07027543634586e-15
-2.37373266668734e-16
-1.7186938075028e-15
9.64084332163801e-17
3.71717270975095e-15
5.47473712633703e-15
-3.9246711738351e-15
-2.33143548945981e-15
2.63699918891197e-15
4.49128942936148e-15
5.95062891990492e-16
-4.89820368079801e-15
-5.75852949582109e-15
-5.88474276520441e-16
5.16121267061124e-15
5.9276453654001e-15
2.78092322433877e-15
2.73530032899245e-16
-1.5438430155607e-16
9.88274342114675e-17
2.19966725057288e-16
5.97921808396279e-16
6.11683765156737e-16
-2.81817731799699e-16
-1.86319221628763e-15
-3.5434587812054e-15
-3.71785537367958e-15
-1.33021174852865e-15
1.77273782469415e-15
2.87236316928977e-15
1.41030286759052e-15
-4.81335737534377e-16
3.4012997815859e-16
3.43521855085058e-15
6.19996619562864e-15
6.12214575823102e-15
-6.66936769633552e-15
-3.170683889427e-15
4.15743075019862e-15
6.12377914801305e-15
-3.52484272550527e-16
-8.02565137524641e-15
-7.85083364416243e-15
6.62942030010535e-16
8.78336656542682e-15
8.68660452467474e-15
2.87332969514274e-15
-8.96813344923039e-16
-4.24251415444057e-16
6.18133299863122e-16
-6.60167825445148e-17
-2.93514082055236e-16
1.04497849780385e-15
1.27946261489829e-15
-1.74584474816226e-15
-5.68805373615221e-15
-5.79508333268325e-15
-1.06626061494801e-15
3.60738614489583e-15
3.8346909380343e-15
8.18939935777146e-16
-8.24854541463941e-16
1.66070828712266e-15
5.66960322378998e-15
7.76660228543282e-15
6.35450125569876e-15
-8.25573180882769e-15
-3.74085473664779e-15
4.840566149354e-15
6.98110895542589e-15
-8.13345258209176e-16
-9.72407152176159e-15
-9.0508664576133e-15
1.29675015680676e-15
1.08120948191836e-14
1.03430643173959e-14
2.90948209353695e-15
-1.79780980038228e-15
-7.37945178137024e-16
9.56703554513786e-16
-2.19545369321261e-16
-9.88795755023736e-16
1.18217655826305e-15
2.42676401242126e-15
-1.25580244493213e-15
-6.73468147645744e-15
-7.08609690692579e-15
-1.02280682077998e-15
4.73055818939455e-15
4.44316070687138e-15
3.45739728494737e-16
-1.16477941525888e-15
2.33856037813321e-15
6.86443379153114e-15
8.44588116914029e-15
6.19154756305127e-15
-8.77223486631435e-15
-3.98479306296054e-15
4.84320350967231e-15
7.09984982656423e-15
-9.28980281651241e-16
-1.01423061344142e-14
-9.3552738673028e-15
1.48627890608327e-15
1.14097199179195e-14
1.08734098464897e-14
2.82024091518066e-15
-2.36269871408002e-15
-1.00735208278066e-15
1.11215733480164e-15
-2.73714680564353e-16
-1.43678196862035e-15
1.11690296243827e-15
3.11912809962284e-15
-6.10188424006647e-16
-6.86209854749489e-15
-7.57826856116544e-15
-1.07893904008055e-15
5.16919774233498e-15
4.65223416202011e-15
1.57492337147736e-17
-1.41877826897292e-15
2.51117930532944e-15
7.15112886197295e-15