/*--------------------------------*- C++ -*----------------------------------*\
  =========                 |
  \\      /  F ield         | OpenFOAM: The Open Source CFD Toolbox
   \\    /   O peration     | Website:  https://openfoam.org
    \\  /    A nd           | Version:  6
     \\/     M anipulation  |
\*---------------------------------------------------------------------------*/
FoamFile
{
    version     2.0;
    format      ascii;
    class       volScalarField;
    location    "0.0052";
    object      ddt0(rhoN);
}
// * * * * * * * * * * * * * * * * * * * * * * * * * * * * * * * * * * * * * //

dimensions      [0 -3 -1 0 0 0 0];

internalField   nonuniform List<scalar> 
18800
(
5.26400515502327e-16
8.64226092370561e-16
-1.78825826488337e-16
-5.31856169620936e-15
-1.06969364981305e-14
-2.00125718467437e-15
3.09911555477977e-14
-3.55096995238581e-12
5.13866673235773e-16
8.5023228746759e-16
-1.46608568821746e-16
-5.16962363864886e-15
-1.05254265275849e-14
-2.05202808033523e-15
2.96053251932632e-14
2.19052308959034e-13
4.85026391006819e-16
8.17175396292341e-16
-7.95247192215786e-17
-4.83705967158617e-15
-1.01217971958942e-14
-2.45343592977908e-15
2.78329085501751e-14
2.08169205919901e-14
4.41777662776858e-16
7.65590463376233e-16
9.66105435339095e-18
-4.35004393601548e-15
-9.49172470889052e-15
-3.00018854881564e-15
2.48822178621064e-14
5.74902476245097e-14
3.8705615014559e-16
6.97382221095094e-16
1.06095483929569e-16
-3.75030212345712e-15
-8.657114847482e-15
-3.56505640998328e-15
2.11573431734354e-14
5.70644934307165e-14
3.25588506198758e-16
6.157057978053e-16
1.95629884718752e-16
-3.08568391613969e-15
-7.65447180051451e-15
-4.06675088108749e-15
1.70309041499779e-14
4.85501687973942e-14
2.61578074920134e-16
5.24657235434579e-16
2.668003743869e-16
-2.40445922242842e-15
-6.53194142649039e-15
-4.41763151439541e-15
1.27561003432866e-14
4.23932163178934e-14
1.98286930604009e-16
4.28904633969373e-16
3.12015150771266e-16
-1.7505569426547e-15
-5.34526764066833e-15
-4.55771244290769e-15
8.63102987672995e-15
3.54541284093094e-14
1.38821362812105e-16
3.33297841020058e-16
3.27992066537119e-16
-1.1600778376385e-15
-4.15312218933422e-15
-4.45844571768333e-15
4.9104631945066e-15
2.82098840430245e-14
8.58957969340019e-17
2.42468979449621e-16
3.1555889477277e-16
-6.59074053461975e-16
-3.0122618645472e-15
-4.12313969133117e-15
1.77917935006813e-15
2.10892395912916e-14
4.16537341209104e-17
1.60474201301075e-16
2.78950028933493e-16
-2.62590438564506e-16
-1.97294495820576e-15
-3.58274495081314e-15
-6.54462844498258e-16
1.44991766144262e-14
7.50289475094507e-18
9.04750683233224e-17
2.24782883582302e-16
2.51255130798473e-17
-1.07506844795453e-15
-2.8899401817002e-15
-2.35453625767582e-15
8.65000552297973e-15
-1.61256297172317e-17
3.45173154055215e-17
1.60875232896837e-16
2.09402631756034e-16
-3.45402716143534e-16
-2.11146850006885e-15
-3.34927877775986e-15
3.6863050466455e-15
-2.98029481188479e-17
-6.59193048512448e-18
9.50980976713765e-17
3.03150987373673e-16
2.03781032136788e-16
-1.3187343259525e-15
-3.72077454070532e-15
-2.51570846584886e-16
-3.4857417407607e-17
-3.32728056533139e-17
3.4377696027442e-17
3.24380506453292e-16
5.74568362416021e-16
-5.78623579285162e-16
-3.59081123652892e-15
-3.12090718179536e-15
-3.31399524449031e-17
-4.70306294930069e-17
-1.60141800234762e-17
2.93572515469193e-16
7.81819617211589e-16
5.40213348647655e-17
-3.10224420884444e-15
-4.96221122856243e-15
-2.67781342895525e-17
-5.01981761410428e-17
-5.28651337228089e-17
2.31156958834667e-16
8.50408252240559e-16
5.41577024765763e-16
-2.40117834176771e-15
-5.88027660160603e-15
-1.79253311906005e-17
-4.55967598168832e-17
-7.50932927991738e-17
1.55459351163899e-16
8.11672894793207e-16
8.6609612283967e-16
-1.62181358789082e-15
-6.02664517118217e-15
-8.52018532620361e-18
-3.61776308202959e-17
-8.3520968713402e-17
8.11578704050397e-17
6.99573948778794e-16
1.02901121226247e-15
-8.75098415692163e-16
-5.58217423670732e-15
-9.9585397594614e-20
-2.46774812937981e-17
-8.04601741888493e-17
1.85027297794035e-17
5.47006986541394e-16
1.04841352704278e-15
-2.41460282879525e-16
-4.73883685378542e-15
6.31351795706823e-18
-1.33512466664188e-17
-6.9114877815704e-17
-2.68413666557325e-17
3.82746602926075e-16
9.54536111730786e-16
2.31828444765876e-16
-3.68181582201225e-15
1.02381359338899e-17
-3.80176028989841e-18
-5.30250893729351e-17
-5.33162059853706e-17
2.29271601621639e-16
7.84280242734873e-16
5.28992629474512e-16
-2.57401506908207e-15
1.16847586921755e-17
3.07388800472105e-18
-3.54880038593502e-17
-6.2670862742062e-17
1.01682496615351e-16
5.75631060366864e-16
6.60637947021866e-16
-1.54475921727851e-15
1.10450506403442e-17
7.03535037394515e-18
-1.91888827323102e-17
-5.86618324389618e-17
7.67687724937876e-18
3.62790580024692e-16
6.56365667733886e-16
-6.83463746763374e-16
8.94622592331789e-18
8.36704914390075e-18
-5.93971660665622e-18
-4.61383305577078e-17
-5.15286768124901e-17
1.72569519189543e-16
5.5644922666802e-16
-3.8436584501632e-17
6.10016062114337e-18
7.69707448790397e-18
3.37278273860705e-18
-2.98436443057525e-17
-7.97443983535553e-17
2.24242972524552e-17
4.0380618054201e-16
3.7986834305866e-16
3.16307211268335e-18
5.80373554748971e-18
8.68568683989575e-18
-1.37276686161769e-17
-8.38615452309503e-17
-7.98735503495932e-17
2.37304418860178e-16
5.91748030054167e-16
6.38180713421568e-19
3.44228817521831e-18
1.05556337954721e-17
-5.37028594879225e-19
-7.20386575130171e-17
-1.35074307129441e-16
8.70977601991815e-17
6.38285428436635e-16
-1.17422199422952e-18
1.21903521609671e-18
9.90014019456735e-18
8.30921235972581e-18
-5.22330823672204e-17
-1.50334955044369e-16
-2.77263789748063e-17
5.70395139509984e-16
-2.17902311803055e-18
-4.76476089518052e-19
7.75031989893389e-18
1.26343599683415e-17
-3.08712731076689e-17
-1.36557980419854e-16
-9.92673704612878e-17
4.38987934505978e-16
-2.45130251280449e-18
-1.48136512841932e-18
5.04217921153693e-18
1.31487411166077e-17
-1.24294443186076e-17
-1.05723826053854e-16
-1.29147694096286e-16
2.87744127794326e-16
-2.17775651358866e-18
-1.82389268359404e-18
2.48595844409592e-18
1.10079520429783e-17
7.55712502298901e-19
-6.88109481736567e-17
-1.25602971229619e-16
1.48796334951892e-16
-1.59106103054449e-18
-1.66010738859063e-18
5.10761576081895e-19
7.55552735122206e-18
8.16993331468406e-18
-3.42321974564528e-17
-1.00270896764004e-16
4.11679235969155e-17
-9.11861782473252e-19
-1.20188752229443e-18
-7.22587388229465e-19
3.9245491649449e-18
1.06306465269171e-17
-7.21862092312635e-18
-6.51632915507721e-17
-2.81996629244301e-17
-3.08373528529356e-19
-6.540127897608e-19
-1.26118900956491e-18
9.08302393841432e-19
9.63850945842012e-18
1.01301331847813e-17
-3.0356641929012e-17
-6.16956630989209e-17
1.22325944145566e-19
-1.71362875354663e-19
-1.27799693131331e-18
-1.1018986636782e-18
6.83422638324457e-18
1.82308608867739e-17
-2.6483524342908e-18
-6.74935383234205e-17
3.52697572811166e-19
1.59852445866421e-19
-9.89842491243145e-19
-2.05779524647647e-18
3.62339518715511e-18
1.91182321431754e-17
1.48257610371098e-17
-5.60305285774441e-17
4.08466244678464e-19
3.19345965877145e-19
-5.9469804959016e-19
-2.15439722491637e-18
9.41116336413773e-19
1.5517300816534e-17
2.21229156467118e-17
-3.71702833656614e-17
3.45297540656615e-19
3.3524688223524e-19
-2.3438268909573e-19
-1.71329597169048e-18
-7.78919850300717e-19
1.00456299325526e-17
2.14785929614617e-17
-1.83843770917469e-17
2.25801995037522e-19
2.60469957767098e-19
1.69735545878059e-20
-1.05535741594604e-18
-1.51459872578433e-18
4.70335829173404e-18
1.6106492075013e-17
-4.04483989239549e-18
1.02247488752419e-19
1.50702930929012e-19
1.43893597641094e-19
-4.27391210983159e-19
-1.502861141481e-18
6.67969682937514e-19
9.138777844004e-18
4.36440068877249e-18
7.49696419785216e-21
4.90958823762628e-20
1.69667275623116e-19
2.7771918116794e-20
-1.07675171222128e-18
-1.66388673581295e-18
2.91496419601777e-18
7.44976554706385e-18
-4.60979761684468e-20
-2.04764675340865e-20
1.34344217443659e-19
2.67840888368552e-19
-5.40018874228642e-19
-2.47007336134187e-18
-1.30760466640234e-18
6.90561730602731e-18
-6.21101028348035e-20
-5.25684065752289e-20
7.69183975397685e-20
3.23773985462829e-19
-9.68763545953735e-20
-2.23293127871116e-18
-3.27686611652945e-18
4.6291112264607e-18
-5.28605728788146e-20
-5.45196034809577e-20
2.49293623994076e-20
2.62742228784541e-19
1.6428469899696e-19
-1.49552932592654e-18
-3.43681633582385e-18
2.12442567085351e-18
-3.25027815341185e-20
-3.92735133951677e-20
-8.44114126563747e-21
1.55238443738978e-19
2.48148507997463e-19
-6.9539128523585e-19
-2.54129673997092e-18
2.56898413844041e-19
-1.22240783094667e-20
-1.92924953721066e-20
-2.18909608348903e-20
5.40308653675442e-20
2.11520437447708e-19
-9.08015015552512e-20
-1.32282460568612e-18
-7.11144550466873e-19
1.80950119259683e-21
-2.98910948890452e-21
-2.10197383598077e-20
-1.35353193957979e-20
1.23369214870096e-19
2.34384300966178e-19
-2.91681489707528e-19
-9.24510009009052e-19
8.17376379422192e-21
6.16894684034479e-21
-1.33759612484233e-20
-4.27424645825874e-20
3.7648450435299e-20
3.18320564557077e-19
3.23216629738231e-19
-7.00926346745742e-19
8.55258753695156e-21
8.62050860758252e-21
-5.071815814251e-21
-4.30313371040339e-20
-1.76636525588205e-20
2.55067193452906e-19
5.25233255014367e-19
-3.4633593196097e-19
5.80021633141265e-21
6.83398622031497e-21
5.99525952789662e-22
-2.86826656194967e-20
-3.82573573327193e-20
1.39920683254233e-19
4.48516421169797e-19
-5.75862809209976e-20
2.45425392836743e-21
3.55331150384977e-21
2.9494615888139e-21
-1.19548073802378e-20
-3.41303092627616e-20
3.83398644979362e-20
2.56556720639721e-19
9.30358013616647e-20
1.19623604398441e-23
7.15822322382501e-22
2.86363394791198e-21
8.80678836976026e-23
-1.93628853018483e-20
-2.15290960081678e-20
7.40773053707283e-20
1.22235054761803e-19
-1.1039362378691e-21
-8.60915919899125e-22
1.68982201132313e-21
5.5557260250702e-21
-5.03034921887965e-21
-4.0414331182056e-20
-3.82451893633614e-20
8.4745940928714e-20
-1.17745475260429e-21
-1.24187900713849e-21
4.90107194649553e-22
5.90485646074231e-21
3.5210559634725e-21
-3.34380978264293e-20
-7.52781350510815e-20
3.27701581517244e-20
-7.43020080812926e-22
-9.17716843516356e-22
-2.2974900336899e-22
3.75571371493746e-21
5.94242306356498e-21
-1.73974514944558e-20
-6.2644288733036e-20
-3.60853293746251e-21
-2.52846911561443e-22
-4.01425070147109e-22
-4.35262918799403e-22
1.31713896255504e-21
4.53859623890242e-21
-3.60613758746123e-21
-3.19482131158853e-20
-1.72915865190716e-20
6.05659972431427e-23
-1.1818606402002e-23
-3.28836207506932e-22
-2.64300493870357e-22
1.98735917027866e-21
3.63726950981862e-21
-5.44561833470381e-21
-1.50180241352457e-20
1.64684369484535e-22
1.57030839115784e-22
-1.36437046752032e-22
-8.12748118333895e-22
2.51828396904041e-23
5.06135892501392e-21
8.1549309234334e-21
-6.97834907258783e-21
1.34315640877449e-22
1.57162243933197e-22
4.4704397209914e-24
-6.82945367210817e-22
-8.096065332309e-22
3.42507292671235e-21
1.02807966946719e-20
-3.20193345328034e-22
6.12423678466732e-23
8.58550566416378e-23
5.82720217088056e-23
-3.24519786435976e-22
-7.79843335311228e-22
1.24302655211569e-21
6.54195257559277e-21
2.51863558681861e-21
4.13103436294696e-24
1.76261136651407e-23
5.09006630864616e-23
-3.36937015956511e-23
-3.9887425584024e-22
-1.74105117060894e-22
2.02592405887576e-21
2.36681499701145e-21
-1.97218808827393e-23
-1.7246976046455e-23
2.27076492204778e-23
9.46731435606192e-23
-5.45556782120416e-23
-6.29043809981232e-22
-7.10314011379274e-22
1.07663307214827e-21
-1.89935630147522e-23
-2.20215326893705e-23
5.14795064823355e-25
9.73395774410518e-23
1.06163063614768e-22
-4.92263607472318e-22
-1.42003581607973e-21
5.15757411740498e-24
-9.17065880607625e-24
-1.27199166563482e-23
-7.94595457619043e-24
4.98451956371895e-23
1.13158671789425e-22
-1.96889447210671e-22
-9.79787881810126e-22
-4.06360123596951e-22
-9.12640897804503e-25
-2.78276723029e-24
-6.76174557003084e-24
7.13428982642398e-24
5.67158321026412e-23
9.08537301394547e-24
-3.1596686435676e-22
-3.35874541863559e-22
2.47227274798405e-24
2.22009611972817e-24
-2.64307231234874e-24
-1.17739352763523e-23
5.87402820062988e-24
7.60822274149238e-23
8.95622112998547e-23
-1.20170213368743e-22
2.30114407802487e-24
2.76166141100754e-24
2.70713425858555e-25
-1.20154079548265e-23
-1.54201472186293e-23
5.79690731130181e-23
1.84567197048264e-22
2.7192627864921e-23
9.76243254197065e-25
1.4236032998915e-24
1.11500668467959e-24
-5.47915649570446e-24
-1.4178209329404e-23
1.99785162189588e-23
1.15612103161691e-22
6.35817544287894e-23
-2.27706917450512e-27
1.82353711389225e-25
7.54016280001524e-25
-2.14786883304958e-25
-5.62281677387747e-24
-3.65417223634401e-24
2.71146030333837e-23
3.81925733475707e-23
-3.05272909048928e-25
-3.1636596445309e-25
1.95395224620036e-25
1.62221300358521e-24
5.15949418896655e-25
-9.03753099667073e-24
-1.76487572323251e-23
6.25901040167373e-24
-2.12201811095955e-25
-2.79653057359263e-25
-9.44792583157267e-26
1.25132059795891e-24
2.19686399727087e-24
-5.35096536420101e-24
-2.15545202345482e-23
-8.2462937333907e-24
-5.11385446245179e-26
-9.47252022445881e-26
-1.21259847966441e-25
3.85450413107887e-25
1.38448578348583e-24
-9.93891756180829e-25
-9.72265034557058e-24
-7.72582365561434e-24
3.0524195223179e-26
2.16709447526481e-26
-4.98892323198777e-26
-1.10253374209874e-25
2.70802112186208e-25
9.06531736284402e-25
-9.69560340154648e-26
-2.57017429849101e-24
3.59400987822836e-26
4.31229308463008e-26
4.76249768290295e-27
-1.84432700406061e-25
-2.33750677001872e-25
8.79495937253327e-25
2.82094087034804e-24
7.1251847934646e-25
1.47585528996293e-26
2.18790209597494e-26
1.78530935279988e-26
-8.6119077146656e-26
-2.27122550151783e-25
3.0450593915155e-25
1.8402995221949e-24
1.22174971973999e-24
-8.16718070725822e-28
1.52269645948867e-27
9.41204338143715e-27
-2.27973314609849e-27
-7.38757042266883e-26
-5.22576492626482e-26
3.50417467342332e-25
5.36922498950905e-25
-5.10124652118154e-27
-5.66537646471454e-27
-5.3166546646569e-29
2.11095212537867e-26
1.77566473405891e-26
-1.11764548632308e-25
-2.92534799404929e-25
-3.10949194541559e-26
-4.03212324172043e-27
-4.97280572728679e-27
-3.84012093910829e-27
1.14454495534895e-26
2.85605026421423e-26
-5.15684586891989e-26
-2.62965041100296e-25
-1.6691402829273e-25
-2.7363336729882e-27
-3.10415906535957e-27
-3.86957121419764e-27
-7.68580706457837e-28
9.3920521722132e-27
-2.31645337313188e-27
-7.28437930529478e-26
-8.48908997053891e-26
-2.4772025509401e-27
-2.43343827664891e-27
-3.0928462268208e-27
-5.2082602471065e-27
-4.17384871893265e-27
9.18739326444605e-27
2.4520656931569e-26
-3.55241131215573e-27
-2.58045431967592e-27
-2.46696333944312e-27
-2.61455465483023e-27
-4.43903724913733e-27
-6.37487165988699e-27
3.23876977164274e-27
2.81850761472203e-26
1.7430462026657e-26
-2.41276557940902e-27
-2.36608102449991e-27
-2.28871331648693e-27
-2.69621377998385e-27
-3.86755162689828e-27
-2.21273757817612e-27
6.41768313508875e-27
7.48631092513641e-27
-1.90045868672852e-27
-1.90306632999227e-27
-1.83645359072641e-27
-1.62129606612608e-27
-1.7248804048345e-27
-3.08613249781097e-27
-4.71198107805335e-27
-2.06516573814028e-27
-1.24125134557937e-27
-1.25166111848469e-27
-1.23916239134314e-27
-1.05605468958256e-27
-8.51713214946864e-28
-1.83202611365219e-27
-4.47542004043221e-27
-3.61378894769087e-27
-6.11150764929805e-28
-6.14512015047712e-28
-6.23046476537561e-28
-5.9132603207242e-28
-4.90866345941109e-28
-6.44575660218733e-28
-1.4501104746596e-27
-1.61806800925051e-27
-9.33352699637412e-29
-9.25260598322376e-29
-9.89088684902661e-29
-1.24902322790609e-28
-1.32186752195062e-28
-9.64539118248228e-30
1.92139820157155e-28
-1.76438085323141e-29
2.83428160936818e-28
2.84068942005743e-28
2.82384424830259e-28
2.64082416833715e-28
2.37883848813315e-28
3.10613045167845e-28
5.45827269324192e-28
5.13598322019183e-28
5.116594278407e-28
5.11165189463827e-28
5.1073116515424e-28
5.07131458697033e-28
4.97208777806462e-28
5.0095450606845e-28
5.52148242357726e-28
5.85415148223539e-28
5.99273683109897e-28
5.98308962055352e-28
5.9758574883507e-28
5.98441667199029e-28
5.99259403339319e-28
5.89097319072693e-28
5.68192218419024e-28
5.89128880579856e-28
5.70974427138536e-28
5.70088733453313e-28
5.69290073088129e-28
5.69559021019702e-28
5.7177112822341e-28
5.69728655026957e-28
5.57582824111468e-28
5.6194490953613e-28
4.63989958610314e-28
4.63331161038754e-28
4.62810078702294e-28
4.62535111159368e-28
4.63641923985923e-28
4.66438138088449e-28
4.68905058329876e-28
4.68926329952419e-28
3.19233712613688e-28
3.18796256254725e-28
3.18580479624769e-28
3.18490756556794e-28
3.19066527063471e-28
3.21498259736733e-28
3.25850476239634e-28
3.25861807855943e-28
1.72791749367266e-28
1.72555751031e-28
1.72533680799107e-28
1.72686643665194e-28
1.73130738238852e-28
1.74112824577049e-28
1.75690530943281e-28
1.75368228640693e-28
5.03511870765299e-29
5.02876963642582e-29
5.03640951218358e-29
5.05587431864169e-29
5.08202645637113e-29
5.09699845242037e-29
5.08579064404287e-29
5.00603393080392e-29
-3.5074551177411e-29
-3.50136238255549e-29
-3.48967035382991e-29
-3.47613791099954e-29
-3.47106842767712e-29
-3.48690804254371e-29
-3.53123606131923e-29
-3.61029005655982e-29
-8.2544910007762e-29
-8.24153515922974e-29
-8.22933340390914e-29
-8.22079844110731e-29
-8.22590957568977e-29
-8.24630494294717e-29
-8.27778175640411e-29
-8.32049488219932e-29
-1.00300224396794e-28
-1.0014774119542e-28
-1.00039108967817e-28
-9.99646101214795e-29
-9.99861966826236e-29
-1.00079376144156e-28
-1.00178506075365e-28
-1.00199458643125e-28
-1.01334755829782e-28
-1.01184540080523e-28
-1.01092681087502e-28
-1.0100422184155e-28
-1.00935228384534e-28
-1.00858023686184e-28
-1.00744044360714e-28
-1.00476134024716e-28
-9.83942658888988e-29
-9.82505956816932e-29
-9.81681649225062e-29
-9.80657118814995e-29
-9.793313042799e-29
-9.77466629975074e-29
-9.75094547310376e-29
-9.7113336082059e-29
-2.66737464074105e-12
6.62366952079036e-12
1.59077647886397e-12
-5.59192390585513e-12
-2.13701267912686e-12
-2.81168633859745e-13
-3.00526058856182e-12
2.28821842452644e-12
-2.085854067768e-12
-4.85775293042591e-13
-3.02613001102077e-12
4.87690976794656e-12
3.43673734148673e-12
2.82857806000728e-12
-9.17771693490829e-12
-4.36706787874647e-12
5.99364239670821e-12
1.99288232053931e-12
1.47894737896506e-12
-5.02627867220986e-12
-2.40507945595261e-12
3.53884183793781e-12
-1.62801710384295e-12
-1.38697602430482e-12
2.8379937381521e-12
1.12797547959216e-12
1.23893952212132e-12
1.51235019528655e-12
-8.57763141885057e-13
1.78410651347095e-11
1.84527885274375e-12
-2.99862818791123e-13
-1.12467906636399e-12
1.71878973495904e-13
1.41525746148136e-12
4.71311508708662e-14
2.00886377261235e-12
-5.23107010251967e-14
1.50209697505064e-12
-1.59857785367544e-13
1.98367741187801e-12
-1.53632868849883e-13
-1.08385579744802e-13
-1.82013047308129e-12
4.85386024653034e-13
2.69683806064991e-12
-3.60131928494716e-13
-1.95747460048362e-13
-1.23664502349615e-12
3.49621905184451e-13
1.65229128966285e-12
-2.2128374633642e-13
6.7382977956388e-14
1.02219977460375e-12
2.06581103830028e-13
-2.65988036630924e-13
-2.62137859354264e-13
1.40979496827004e-12
-8.27094367367109e-14
1.8161167081852e-11
-4.81091686692337e-14
6.99442284969321e-14
1.03188708869131e-14
-9.82062884674124e-14
-9.2837816028722e-14
9.48758282524563e-15
-1.23631640640552e-13
-3.04962825484408e-14
-1.48979097258043e-13
2.59995159500207e-14
-1.13502830256364e-13
6.08350647010439e-14
1.06876373107225e-13
1.91374078256548e-13
-1.30903535813857e-13
-2.2330440165698e-13
1.07967479909766e-13
-1.12325115940016e-13
4.67309092188136e-14
-1.64741901951825e-13
-1.69214506476252e-13
9.08415451303096e-14
1.10856683345659e-13
1.51920791516914e-13
3.06328896301849e-14
-1.40132473187751e-13
6.53196230260557e-13
2.0764409145469e-12
4.3855422522927e-15
1.82546274323062e-11
6.93764805564767e-14
-3.05437513282685e-15
-5.71754461272378e-14
-1.20977376970636e-14
2.11117982542492e-14
-3.61212094093535e-14
-1.64014751334106e-14
1.66818698607219e-14
4.08439080142423e-14
-3.30688797352673e-14
-1.28369203703765e-14
1.76557213334583e-14
6.51851661615232e-14
5.7894019241274e-14
3.1030016468761e-14
2.87954669274018e-15
-1.36360242935964e-13
-9.08581750052064e-14
-1.04890848031066e-13
-5.35006895643194e-14
-1.05344028110157e-14
2.96100248447129e-14
9.584778486151e-14
1.11272415832228e-13
1.10303595683834e-13
1.38684331808561e-13
6.97811300962614e-13
1.72882385751187e-12
2.87936203808415e-13
1.84790040176284e-11
5.79818002318574e-14
-2.9936242929088e-15
-3.78604032012469e-14
-3.2326374335831e-14
-1.34631640228198e-14
-4.76889787805169e-15
-1.18188278298214e-14
-9.24878878564798e-15
3.56375035908164e-16
-1.34504614690699e-14
-2.28698026809893e-14
8.00462332686349e-15
5.50942413100152e-14
6.69103208327981e-14
2.69070229007086e-14
-5.50805407090637e-14
-9.33432508159556e-14
-8.09027108492323e-14
-6.87284894674269e-14
-5.95248859177673e-14
-3.43163433247784e-14
2.66844887202248e-14
9.49291125862191e-14
1.18356595816334e-13
7.88176509804417e-14
2.77364285096923e-15
4.73760898668156e-13
1.57474112264235e-12
5.8646908472666e-13
1.88003128746213e-11
5.03389848272016e-14
2.05777659950135e-15
-3.71774835590571e-14
-2.98461731242644e-14
-5.95722593117885e-15
-6.54729771804106e-15
-1.5773973015468e-14
-7.1876213982809e-15
6.01212434909767e-15
-1.07550443292013e-14
-2.33138846022176e-14
3.27975067040704e-15
5.18263659723242e-14
6.82550449965137e-14
1.93619023931459e-14
-4.344750366586e-14
-7.17921649954413e-14
-8.45791574859242e-14
-6.54060073843475e-14
-5.65465607169963e-14
-3.52425532328122e-14
2.37834022672415e-14
8.59240780882478e-14
1.06991605386495e-13
6.49656991888188e-14
1.42895579592544e-15
4.79331260141067e-13
1.42129819307036e-12
9.11924071509788e-13
1.9005585448449e-11
4.80460321813815e-14
2.04703232375551e-15
-3.45158907089851e-14
-2.76870705479484e-14
-6.64628600442043e-15
-5.83978052062741e-15
-1.48422738069489e-14
-5.1413869822055e-15
5.9854113784722e-15
-7.17567098696492e-15
-2.21663920374545e-14
-3.25343211398619e-16
4.4169914127663e-14
6.09120419046781e-14
2.33320735744093e-14
-3.64238390146866e-14
-7.50707362269793e-14
-7.14735485140907e-14
-5.77972616975886e-14
-5.08145886249444e-14
-3.23161352678255e-14
1.78851675183943e-14
7.76605071514685e-14
9.90577482320952e-14
4.96112938017878e-14
6.57585004646633e-16
4.27024878670698e-13
1.2385115651758e-12
1.25554120742822e-12
1.91060246247987e-11
4.32814433975561e-14
3.22262001379908e-15
-2.97231283427372e-14
-2.57525550384852e-14
-5.67182606769159e-15
-4.15702027569847e-15
-1.1804969405179e-14
-4.93072765464654e-15
6.21274892930743e-15
-3.49972507994922e-15
-1.94655141687371e-14
-4.05705410223248e-15
3.65517635674134e-14
5.42653587843496e-14
2.21665532321048e-14
-3.21815887550165e-14
-6.41120294133857e-14
-6.23957082455904e-14
-5.00513724534575e-14
-4.40198697241608e-14
-2.95023041881106e-14
1.28313987606048e-14
6.87036597573845e-14
8.90803914194946e-14
3.3931607372827e-14
-8.22370469836029e-15
3.59717287180746e-13
1.07368640759401e-12
1.54382996779913e-12
1.91356171315028e-11
3.76207924872034e-14
3.80837216998804e-15
-2.52001341644491e-14
-2.28197107186664e-14
-4.94504913034095e-15
-2.45584645982439e-15
-9.4640165324761e-15
-4.07463582767344e-15
6.20958882532356e-15
-8.98270543592498e-16
-1.66545365236404e-14
-6.53450154834269e-15
2.88196427304459e-14
4.62593742245996e-14
2.03136336548963e-14
-2.59943104752652e-14
-5.35532909223247e-14
-5.31968782123141e-14
-4.17444889031189e-14
-3.67120294505359e-14
-2.57954450525511e-14
8.85920046293417e-15
5.87920240908852e-14
7.75254523448044e-14
2.27376349405368e-14
-1.64087878003272e-14
2.92717872990563e-13
9.19404535069644e-13
1.720513392429e-12
1.91044147175199e-11
3.12393608773092e-14
3.91813881578386e-15
-2.04173848985895e-14
-1.90423007845435e-14
-3.90819559771771e-15
-1.04226961429779e-15
-7.10571218312956e-15
-3.01262762771717e-15
5.83230134456209e-15
7.21110641944711e-16
-1.36447620700862e-14
-7.61047286234085e-15
2.14014258456191e-14
3.75243007335763e-14
1.79886415642309e-14
-2.03499219154237e-14
-4.40645597515765e-14
-4.25790958896019e-14
-3.31891850294144e-14
-2.9284463523072e-14
-2.1482535243797e-14
6.07696196120842e-15
4.84444788473992e-14
6.50560351035761e-14
1.44666790522004e-14
-2.62149528731958e-14
2.30884055845266e-13
7.65795832162089e-13
1.75870270257082e-12
1.89846208230346e-11
2.45212646994895e-14
3.50269875325114e-15
-1.55629376355941e-14
-1.48550681516128e-14
-2.70060184252898e-15
1.19946852902171e-16
-4.81773740851833e-15
-2.03396812546964e-15
5.15021409941495e-15
1.62282165581488e-15
-1.04614492714942e-14
-7.57895640000492e-15
1.4686599166461e-14
2.85382996171206e-14
1.47002576648084e-14
-1.52981929423492e-14
-3.39563844197725e-14
-3.20289559339717e-14
-2.46583281580324e-14
-2.20008986062825e-14
-1.67799710873135e-14
4.33828058704099e-15
3.8312267893385e-14
5.23350277363958e-14
7.68246562467742e-15
-3.65795876794636e-14
1.75257894202152e-13
6.07734961466263e-13
1.65921358552136e-12
1.87111964434564e-11
1.77439004985382e-14
2.56707285394334e-15
-1.09880394788197e-14
-1.04692125291915e-14
-1.41330934559695e-15
9.6893820420953e-16
-2.81848317786034e-15
-1.14685934152897e-15
4.2413719930903e-15
1.94916477628172e-15
-7.36532880866653e-15
-6.63606238413344e-15
8.93818787417194e-15
1.97654670858465e-14
1.07453029802602e-14
-1.08004045394396e-14
-2.40522104980315e-14
-2.19368398010541e-14
-1.64476045540711e-14
-1.50392826273261e-14
-1.18987447075753e-14
3.35170844628649e-15
2.86950774702596e-14
3.96409595935048e-14
1.58608112514467e-15
-4.66352900608837e-14
1.24563990351051e-13
4.45670310914044e-13
1.44339125967996e-12
1.82058461475233e-11
1.12165878400488e-14
1.28873873975873e-15
-6.87936707299448e-15
-6.1699803245198e-15
-1.26793742511869e-16
1.49730825286436e-15
-1.1883328163845e-15
-3.77405255079456e-16
3.21067254128494e-15
1.86385594217837e-15
-4.53170519305184e-15
-5.06823442199744e-15
4.3259590474463e-15
1.16744743165046e-14
6.47030853451971e-15
-7.09811318945599e-15
-1.49480505298665e-14
-1.25518248696249e-14
-8.86834582831935e-15
-8.60373696240372e-15
-7.11152148072535e-15
2.86878939708474e-15
1.98901686230103e-14
2.74317011439788e-14
-4.29766379074403e-15
-5.54549823109564e-14
7.7899979046888e-14
2.84302164379146e-13
1.14533877994485e-12
1.74103374709497e-11
5.28007639104928e-15
-1.66421049475493e-16
-3.39012721809622e-15
-2.22889009193324e-15
1.0669553794938e-15
1.73858797751641e-15
3.51906182203847e-17
2.54973465849857e-16
2.17208943181464e-15
1.52436849463877e-15
-2.09161176410453e-15
-3.20718063789127e-15
9.13896283922722e-16
4.6579269572272e-15
2.22566469826875e-15
-4.2548077237282e-15
-6.98310362648584e-15
-4.27004311406469e-15
-2.21870732592754e-15
-2.92013654670443e-15
-2.69340157950338e-15
2.7111591365021e-15
1.22174590460857e-14
1.62533142377978e-14
-1.00511850997997e-14
-6.22610329663529e-14
3.51875156117062e-14
1.30257312382636e-13
8.03492082755344e-13
1.63050105644372e-11
2.13726707323278e-16
-1.62668314170371e-15
-6.19677665390567e-16
1.14464559753747e-15
2.09059948250285e-15
1.72618105824264e-15
8.46820894209767e-16
7.5284345610305e-16
1.22478484118314e-15
1.03594570471538e-15
-1.58440501417444e-16
-1.32645999842346e-15
-1.33449203534964e-15
-1.00322991789548e-15
-1.63493131277534e-15
-2.22763962664403e-15
-4.60994406539035e-16
2.5756261762292e-15
3.25177821409804e-15
1.79593358215518e-15
1.11005120341386e-15
2.75933689358928e-15
5.90440262949755e-15
6.58457522235177e-15
-1.5340378806644e-14
-6.65862989717682e-14
-3.09004840395464e-15
-1.10280282916251e-14
4.55299714830179e-13
1.49482305796155e-11
-3.78252355709724e-15
-2.92013667283031e-15
1.40044805743862e-15
3.79647369462892e-15
2.87973156883645e-15
1.50731891777411e-15
1.28273718919248e-15
1.12200455180336e-15
4.40870471474745e-16
4.65131417123115e-16
1.2005750464205e-15
3.80367108867134e-16
-2.54353355622598e-15
-5.16119678307201e-15
-4.82244238955242e-15
-9.33715734454196e-16
4.43810696609901e-15
7.78067080986628e-15
7.37181697896544e-15
5.38355606149757e-15
4.11526279469295e-15
2.92215291993083e-15
1.05801853436328e-15
-1.19919472329541e-15
-1.96062791646175e-14
-6.81934543534515e-14
-3.62056829058446e-14
-1.3645462389417e-13
1.37176111382902e-13
1.35906186523764e-11
-6.60188747490037e-15
-3.91088502498036e-15
2.69731728838132e-15
5.63357158353263e-15
3.38526881676334e-15
1.1488701554931e-15
1.40878045136359e-15
1.36721255847414e-15
-1.40041592044314e-16
-1.27995706514599e-16
1.98705505855969e-15
1.78050663291543e-15
-2.9063880370784e-15
-7.80620671733214e-15
-7.1450056356455e-15
-2.43778237386351e-16
7.69495715553282e-15
1.12661652488411e-14
1.00697903178494e-14
7.76974370622173e-15
6.21929185008952e-15
3.11456635949944e-15
-2.33534441738542e-15
-6.87247467206149e-15
-2.23089846755254e-14
-6.70245384179891e-14
-6.34299826152254e-14
-2.44625250254063e-13
-1.15534882165548e-13
1.25039074050027e-11
-8.24058071827428e-15
-4.51415480248238e-15
3.34777123303743e-15
6.6351768287577e-15
3.58373786520238e-15
7.25713934168332e-16
1.30743923226851e-15
1.49330151408739e-15
-5.10282950792944e-16
-6.7661680394767e-16
2.26966381448913e-15
2.78825117482322e-15
-2.65890391131801e-15
-9.0551330851937e-15
-8.51230844529869e-15
8.72269608019908e-18
9.42589193913302e-15
1.3078535850897e-14
1.13834834515195e-14
8.98243312065033e-15
7.40468525912709e-15
3.25266574425554e-15
-4.40025438209363e-15
-1.03968761050792e-14
-2.31100496524225e-14
-6.31902482382339e-14
-8.42107316339848e-14
-3.3538865200039e-13
-2.73820096898338e-13
1.16455015202448e-11
-8.7899343683038e-15
-4.69858264186084e-15
3.46697055428397e-15
6.85507299313217e-15
3.48282798304646e-15
3.0735529594925e-16
1.06557707118674e-15
1.5066632266592e-15
-6.89310726947487e-16
-1.11413927189446e-15
2.16532636915597e-15
3.36381656843795e-15
-2.04800914124714e-15
-9.12590814534693e-15
-8.93344432190664e-15
-1.21518133979632e-18
9.84712449977864e-15
1.33857709315959e-14
1.14553946282698e-14
9.14390640345499e-15
7.7330987301385e-15
3.26241356906053e-15
-5.34436680660205e-15
-1.19212055824462e-14
-2.19645279437517e-14
-5.69490370894757e-14
-9.82311185402973e-14
-4.10838532363584e-13
-3.40148146978433e-13
1.08782714667909e-11
-8.42120806685683e-15