/*--------------------------------*- C++ -*----------------------------------*\
  =========                 |
  \\      /  F ield         | OpenFOAM: The Open Source CFD Toolbox
   \\    /   O peration     | Website:  https://openfoam.org
    \\  /    A nd           | Version:  6
     \\/     M anipulation  |
\*---------------------------------------------------------------------------*/
FoamFile
{
    version     2.0;
    format      ascii;
    class       volScalarField;
    location    "0.0052";
    object      ddt0(rho);
}
// * * * * * * * * * * * * * * * * * * * * * * * * * * * * * * * * * * * * * //

dimensions      [1 -3 -1 0 0 0 0];

internalField   nonuniform List<scalar> 
18800
(
0.142335568470198
0.187072480470793
0.0884293675989911
0.191712894320458
-0.523911827614688
-0.916713569507273
-1.23514879103504
-0.425273270710935
0.141788087970782
0.187134076134592
0.0902776107395086
0.177005548669347
-0.524552885194329
-0.916660779996207
-1.22381930441543
-0.495230256684494
0.140567207177611
0.186420028600479
0.0934337911250464
0.156573470243843
-0.52359880592743
-0.91291251480694
-1.2324738823059
-0.648902745614194
0.140606716995488
0.185404330105313
0.101430494965968
0.117956846378092
-0.520948569423232
-0.903801610101528
-1.21720737906045
-0.821430101889463
0.139358588281202
0.183665541269321
0.112395255607687
0.0689477836249645
-0.515273829430619
-0.890195351813636
-1.20269634093302
-0.96156504487406
0.136052321593176
0.182477824181494
0.127339719671542
0.00327720250660011
-0.506685288895401
-0.873785010680797
-1.1440188109613
-1.01670402281545
0.1337408594942
0.18169027761475
0.144524178638284
-0.0711843748090027
-0.49694939982452
-0.853084363306575
-1.09645718315525
-0.988747785594703
0.127169186588936
0.182550974824858
0.163318186591651
-0.14948394600299
-0.484868000657519
-0.829015857276328
-1.03054994227502
-0.943088987459897
0.130459804840017
0.183329468410204
0.181676795342129
-0.222697482838667
-0.470143549689429
-0.803718070772298
-0.976751148175514
-1.03329645161662
0.123945975756787
0.184651270699783
0.198395236271432
-0.283902333946287
-0.452036754391198
-0.775557205061817
-0.974579416401717
-1.20941529574397
0.160753124048077
0.182545734011302
0.210710651079346
-0.327716827294661
-0.430589462459973
-0.74531319490996
-0.96992477216836
-1.98915360645518
0.166640361338016
0.177801474266647
0.214733393922959
-0.350503109649069
-0.406232469059041
-0.713912864767185
-0.963122665402543
-2.05654328435989
0.134643652047374
0.164216210264579
0.208207974645938
-0.348508846473298
-0.379696979176313
-0.680301443553799
-0.929446700288217
-1.71324802298629
0.123558769538057
0.145227033284212
0.190731056066971
-0.314828908918885
-0.351210160804993
-0.643689230387711
-0.8929866608804
-1.49950072132641
0.113248825438512
0.115753605256571
0.161246496051068
-0.261100294575925
-0.320162804319898
-0.603495959390587
-0.846951956965193
-1.41366837418884
0.108874106043297
0.085366564898841
0.119185217880321
-0.143403695880642
-0.285085348535376
-0.55989316830167
-0.807356140038037
-1.37797266621083
0.105214007218893
0.0529476828910319
0.0693207860557704
-0.037046618068981
-0.243509257386327
-0.513470667642996
-0.774011412854364
-1.34666131994397
0.102906952996786
0.0328529602780216
0.0103650963024611
0.174830384517388
-0.198065746287087
-0.465504107643416
-0.74681684431595
-1.3027071497647
0.102855325046926
0.0311174342969219
-0.0327937976303812
0.289988198790818
-0.145935137929194
-0.417831181603685
-0.715151301657433
-1.2424753823814
0.104543390017446
0.0309151493931989
-0.0588314796664163
0.369679479426814
-0.10575892804263
-0.371991856492732
-0.679789648569324
-1.17158604933993
0.110142442499966
0.0448504195901278
-0.0568096943526405
0.554751042628833
-0.0695207067510525
-0.332091689448678
-0.637469352342364
-1.10189165309588
0.118794183101127
0.0624917426047647
-0.0458765031127176
-0.0455658261546666
-0.0435838322896145
-0.293578802362069
-0.589281892806345
-1.04057255713908
0.127930904050898
0.0853593645692666
-0.0300291250253256
0.551889109077647
-0.0790289689877126
-0.266803374146325
-0.534141887466109
-0.987173750163914
0.135335865165763
0.110837441173356
-0.00172812588010264
-0.508236465912974
0.0240714701422476
-0.234564729496474
-0.475644529984138
-0.935329966604942
0.139509337754306
0.133332437636885
0.0933648666940905
-0.287563863303523
-0.124322737175196
-0.204732373536741
-0.416530269239759
-0.860940121392106
0.133285466301438
0.148028496350927
0.125952416084932
0.429811978319586
-0.0262974971528226
-0.197774347091757
-0.357963899192322
-0.744868623353753
0.132666793791991
0.160060832651794
0.0819906464180785
-1.74644272063897
0.0570391260883497
-0.120920872409746
-0.319193895047312
-0.609155465141478
0.124687710084796
0.160171365004459
0.0854255258496996
0.984816158679729
-0.488623951436871
-0.137303922972004
-0.270005126406837
-0.500197678296147
0.120672329939232
0.160877125284867
0.0291818417806753
-0.253821246833483
0.358596593323236
-0.0986604937780562
-0.246164455783069
-0.47656192702854
0.116086810434975
0.118197939144543
0.0465442156277916
-0.454221924735454
-0.0566220488515279
0.0692989213113599
-0.221492148173389
-0.501879451129282
0.112983336446141
0.0763363487804383
-0.00386524037102879
2.34749252890314
-0.352013055817859
-0.185664399602828
-0.166748443966764
-0.513177310917447
0.111455704318034
0.0597214347442917
-0.0898064309896871
-1.0576505095461
0.672711840651815
-0.0611602981921548
-0.177054373089973
-0.50907071444448
0.112818218971789
0.0326850161333774
0.0118366250738813
0.0283275014866314
-0.19793025622116
0.0343530821331626
-0.170245778261786
-0.454195198489168
0.112504863393878
0.0594224490011441
0.0393279553859922
1.29243183218772
-0.253332721028812
-0.223872363025839
-0.101586252977988
-0.329482296791789
0.11197063278823
0.0821298588067711
0.0716419865373034
-3.5465096187538
0.291824023500837
-0.117944424414776
-0.101055024886549
-0.141650383549894
0.111292344415354
0.0693951211229612
0.200937269835547
0.436190597474905
-0.349075702969953
0.0492484425097472
-0.0966541153639547
0.0890033161636369
0.110960904039656
0.0598499635135973
0.15149949291717
3.0320270757456
-0.217703132214531
-0.139053465976514
-0.0838243247729393
0.287410219023684
0.111100503850668
0.0746387165917568
-0.0521167034901612
0.353774842872617
0.47945997458126
-0.266577428617344
-0.0833771344322551
0.375217922767388
0.111448177528556
0.0911837203354498
-0.118835869330966
-0.978900053386526
0.249266292818054
-0.0739217499445559
-0.0767470573981451
0.20757035054449
0.111835762428174
0.0947043441382579
-0.00502449515216486
-0.817296323375745
-0.231542622907541
0.0961348850786738
-0.0659696369174833
0.141352895724926
0.112175628792444
0.0874386097327796
0.106449784936195
-0.234616832040909
-0.243779027186528
-0.0534853787743901
-0.062235206638281
0.0975108839535199
0.112403498504488
0.079256782565896
0.124619325609015
0.155899684743192
-0.0940614776525548
-0.129563482181482
-0.0763921536432239
0.0981041167066168
0.112556424280578
0.0776838800390934
0.0590549296357689
0.268969226666298
0.0978638120458739
-0.132750349337878
-0.0582764970564393
0.0555372935104497
0.112700195671897
0.0830378935852784
-0.00878790098889633
0.190378205235628
0.181996561174918
-0.0586001896992765
-0.0626493234606958
0.0710624403633745
0.112839251200162
0.0894519979316668
-0.0139797636284184
-0.00729009585121792
0.0444730147647909
0.0418140069114342
-0.0579803630158648
0.108805186900424
0.112939961386557
0.0903876773255228
0.0356304392237083
-0.0491865777494324
-0.0135617582801241
0.0180487396834156
-0.0501328187970715
0.085665297964101
0.113011031631002
0.0857958761314713
0.0754379490967418
0.00809782326134319
0.0187695388681812
-0.0571715516604999
-0.0455621593734566
0.074778462229354
0.113098250652011
0.081884274075355
0.0550799351172909
0.068880217182448
0.0255740971338478
-0.0280846723993247
-0.0342932247060881
0.0732568939986708
0.113227037114998
0.0837106996615946
0.0229767162107987
0.0671349218168062
0.00820450077373396
-0.0150743286368524
-0.0233464092469266
0.0720599525157291
0.113395067610979
0.086557435326124
0.0307945295372053
0.00944256117567421
-0.00793677179960761
-0.0154625701038671
-0.0172633368462598
0.0759933484646789
0.113576265764958
0.0883514468239047
0.0489524856578243
0.0122087403091501
-0.0149715646535982
-0.0187600921175352
-0.0124467258496065
0.0749818641550443
0.113777830579519
0.0897414654077769
0.0478855541658925
0.0282052362912412
-0.0182114955848165
-0.0181105955105308
-0.00735245211843216
0.071189581274922
0.114025103622786
0.0912897572546774
0.0435740864591721
0.0227029015420918
-0.0216928204536501
-0.017726495674219
-0.00281739795170037
0.0672784569379318
0.114301808880243
0.0929943610792244
0.046037406406515
0.0180269737605816
-0.0247639359984819
-0.0174697380374029
-0.00356473634671979
0.0611400382427534
0.114608775560541
0.0946473353495697
0.0507035506538484
0.01785389642631
-0.0262219161340063
-0.0184857941767994
-0.0256548596724191
0.0526970910265604
0.114941563662094
0.0962727413571663
0.0527336991071307
0.0168428710803025
-0.0266195325877683
-0.0209965624753672
-0.0476383241677928
0.0421221694188484
0.115306862281964
0.0978363682419203
0.0533741646973645
0.0146943709459134
-0.0267718136247691
-0.0263146624760416
-0.0524496151034161
0.0303882919211604
0.115691717392701
0.0994145214936056
0.0550269358229213
0.0138495669178069
-0.0252620627913958
-0.0328715077234719
-0.0473250649152225
0.0188585392095958
0.116109637030909
0.100966627408075
0.0569155016879485
0.0149916202465947
-0.0218762983974154
-0.0372808568974887
-0.0442708393484994
0.0137847832657734
0.116539761682003
0.10263094429091
0.0584107457195585
0.0163601780199739
-0.0178622036458568
-0.0397512295817437
-0.0639643795951366
0.0227981705507372
0.11698875136508
0.104337213589282
0.0599410690854617
0.0204700262416117
-0.015393205208364
-0.037922364711385
-0.0269314315322118
0.0259968621247882
0.11743161193999
0.106161922357849
0.0616702911053934
0.0231301277183195
-0.0119570271608854
-0.0354415575801007
-0.0244016116223617
0.0290150899468767
0.117863054125599
0.10803147668377
0.0635647835121441
0.0251077268042291
-0.00984313753582271
-0.032536682859987
-0.0172455158625689
0.0328721387418614
0.118256754923583
0.109944048320217
0.0655992287723266
0.0271455676743176
-0.0083162597391966
-0.0293705953169222
-0.0138755951821348
0.0365824140865413
0.118593898507082
0.111822534908151
0.0677344859609312
0.028828386608986
-0.00577018183674462
-0.0259147412874092
-0.0102759192240682
0.0414125758630771
0.118843871195437
0.113662514330274
0.0699405837446107
0.0323564562553647
-0.00346772040039789
-0.0218751200016016
-0.0119487193543987
0.0452543667426751
0.118973913179511
0.11544859446579
0.0721529755765372
0.0386472485848064
0.00139733334726087
-0.0176042278022253
-0.0156062022165168
0.0464186181966106
0.118959780851145
0.117112961589575
0.0743060538841879
0.046226736045964
0.00779937102611703
-0.0123955186370432
-0.014774479780535
0.0427853285835688
0.118794760445255
0.118489960639802
0.0769469991758771
0.0524917328147092
0.0149856142296203
-0.00655219077069888
-0.015149352291175
0.0394928136014607
0.118522433505846
0.119592017891291
0.0790999590307942
0.0557158072027921
0.0216000364716712
0.000106308654640306
-0.012316287394162
0.0353887183965524
0.118204892333881
0.119578929044131
0.0830234703280734
0.0583591130102215
0.0279990327958334
0.00762253051478152
-0.00827273411172155
0.0328816751563395
0.11786145234903
0.120291137119272
0.0879451827400919
0.0604009513435677
0.0344010266121591
0.0156017449463707
-0.00255902168432168
0.0316132305807942
0.117477224104751
0.119928079892285
0.0918307580216147
0.067692894041919
0.0429747324421778
0.024535766076783
0.00394809560737813
0.0315548741162904
0.116418906492169
0.11794084033978
0.0961763301655234
0.0587035214988778
0.0514178991214851
0.0332259822727358
0.010443954876187
0.0321113099519001
0.11512567933585
0.118329519527458
0.100645259009735
0.0665414627449378
0.0611375988989813
0.0424207755018327
0.0167153395787829
0.0332123625355948
0.113655772719876
0.118217032244033
0.105854118695565
0.0783784485727379
0.0718095298785346
0.0515190146224653
0.0222400172449768
0.0347611385763398
0.111999130477255
0.118123174172066
0.110557347030051
0.0899815971002238
0.082873680571292
0.0606887186328997
0.0273353263381684
0.0366956811361399
0.110132912718419
0.117509879428667
0.115125898061494
0.102047009758589
0.0941563713158935
0.0696709214897846
0.0322298319809299
0.039146698397574
0.10799196329373
0.116621886599641
0.118943246102988
0.112605931388947
0.1055622268558
0.0786006414735991
0.0371946147811313
0.0424147743254264
0.105708175570716
0.115373115472617
0.121972526407436
0.124229275231313
0.116855977265655
0.0874926757884116
0.0428922373717697
0.0471194451361077
0.103292711452519
0.113904176676045
0.124431342832005
0.131155997236277
0.125838900545462
0.0946737423529413
0.0487215600134827
0.0532389599783357
0.10082953878443
0.112337849795527
0.126378276438062
0.136506804639483
0.132903608035526
0.100793507116094
0.0551590472896235
0.0611126793047768
0.0983897299546559
0.110811030886513
0.127789037774904
0.140114188730116
0.137448704383382
0.105486515581179
0.0624556841074053
0.0707575574018968
0.0960327134969917
0.109374582285562
0.128439366573723
0.142191947656099
0.139965113047024
0.109298820224626
0.0709216893827948
0.0816502065140294
0.0937974510534229
0.108033856096061
0.128190090925804
0.142659593987512
0.140662022911994
0.112538944247547
0.0803666788783731
0.0931734670641137
0.0917090946382864
0.106797610423059
0.127107289254127
0.141542958796496
0.139626153660991
0.11518696517486
0.0901975671889473
0.104255636977845
0.0897740335211583
0.105664895356338
0.125480451598214
0.139240676062274
0.137269774796385
0.117411476458018
0.099736705679951
0.11319601534686
0.0879754351245836
0.104583213514924
0.123615979647367
0.136453778011478
0.134524519683436
0.119885211046351
0.10925119824508
0.122146753729502
0.0862715804167812
0.103407742114742
0.12164162224027
0.133938251355536
0.132680668230018
0.123708087043545
0.119282674448482
0.13018286176827
0.0846019912193085
0.101906213383496
0.119490932267929
0.132289676926772
0.132961816626801
0.129904810230728
0.130295668771971
0.137638557841219
0.0829039696769022
0.0998149274641636
0.116995688744513
0.131882336293338
0.136278847214089
0.139215425520931
0.142622627214154
0.144577742715355
0.081134074579963
0.096922291533077
0.113924310536478
0.132812910279661
0.143142039605202
0.152110616714224
0.15646262394165
0.151306787485099
0.0792821547214241
0.0931381714730886
0.109993939028774
0.134810653353597
0.153518991369607
0.168656362356188
0.171893818909576
0.158265633381158
0.0773716962577956
0.0885226864716804
0.105004272135247
0.137307338182033
0.166689985048645
0.188254132200676
0.188471242541663
0.165293291323496
0.0754530354060332
0.0832849794625662
0.099055143159667
0.139711500007323
0.181261749366141
0.209404499885867
0.205429000798546
0.172453582547493
0.073597333613275
0.0777665243343983
0.0926173222188094
0.141660121350966
0.195460719429276
0.229866235933744
0.221572708885626
0.17973497100032
0.0718918325769937
0.0723907077846014
0.0863319685417894
0.143098139592108
0.207794773441616
0.247450991640053
0.235546108006153
0.186910950361019
0.0704317987544207
0.0676260646239545
0.0807823618326439
0.144159527475969
0.217577872111237
0.260938108731293
0.246274785497559
0.193332275103076
0.0693549728966487
0.0638994824467381
0.0764321904433007
0.145038014334882
0.224884803136363
0.270450513357225
0.253667531094575
0.198457794960715
0.068669581871769
0.0614797561250672
0.0731479976845056
0.145467257561199
0.230134664762858
0.276870653886615
0.257729378572254
0.200859056110702
-1.79911643052757
-9.79537090570467
-3.52975520106483
-2.12123159818216
-1.81303026119267
-1.67899345867479
-1.62674606169486
-1.66462051029544
-1.80468948979314
-2.08510517886401
-2.56434684301976
-3.17540437494795
-3.83321664512589
-4.43089069777215
-4.75933106650908
-4.71289716387233
-4.3598739441374
-3.87239100991779
-3.36344155524407
-3.02468228909391
-2.86278676996198
-2.85209275664578
-2.91165576820343
-2.99467599904831
-3.03701813944385
-3.06594404775789
-3.12882178482548
-3.20909816867998
-3.19847423329377
-3.0877750086775
-1.67685302930241
-8.0573892166176
-3.4118508253571
-2.11632557139966
-1.81218141666537
-1.67848423960653
-1.62628145314679
-1.66362229941596
-1.80383020384934
-2.08526215303352
-2.56223208009132
-3.17554617139993
-3.83489262268372
-4.43463513253806
-4.76366962895611
-4.71730216407216
-4.36336297026931
-3.87487833800673
-3.36516360727925
-3.02629347988515
-2.86482812889699
-2.85489223885551
-2.91519524984114
-2.99886095866928
-3.04168545870281
-3.07101673084528
-3.13434178590578
-3.21526058756048
-3.20711273588185
-3.07731740162905
-1.40632381554628
-4.8923531404785
-3.1457990142304
-2.10214857309317
-1.80697502339673
-1.67376997307837
-1.62157055002418
-1.65772055809446
-1.79807859068215
-2.08125127804612
-2.55445473079541
-3.17051030916394
-3.83390284607166
-4.43645623583403
-4.76808307916016
-4.72182240899365
-4.36635809474979
-3.87609144223504
-3.36483502452056
-3.02543333873959
-2.86433555882476
-2.8555629305759
-2.91725271685027
-3.0022847434776
-3.04610347669025
-3.07625598273074
-3.14028536488352
-3.22241548484244
-3.21812194395494
-3.0541948353977
-1.19359169021352
-3.01429021092073
-2.82759982033998
-2.07755571365213
-1.7947989444836
-1.66180996541199
-1.60910595098748
-1.64349329033851
-1.78466331185779
-2.06968079397329
-2.53901300012978
-3.15918831264094
-3.82626394692179
-4.43283438744671
-4.76603259879055
-4.71988044952192
-4.36268052863467
-3.87046325976541
-3.35772507304708
-3.0179947011492
-2.85762726591008
-2.85030205978068
-2.91352172893581
-2.99993520871265
-3.04478851744817
-3.07569953020854
-3.14014340193641
-3.22378123852191
-3.22315022751639
-3.0261859333593
-1.05334376602885
-1.18906309568432
-2.5174138711492
-2.04521521479165
-1.77607467897736
-1.6433958473455
-1.58966758923113
-1.62240809209209
-1.76523610523385
-2.05103032738398
-2.51778263893921
-3.14114802968977
-3.81270982983116
-4.4223533484687
-4.75746410745892
-4.71119364492158
-4.3523304803869
-3.85829493583716
-3.34422795883584
-3.00421506455708
-2.84455838841313
-2.83865427551652
-2.90341474206016
-2.99123963345409
-3.03715080749272
-3.06878970201585
-3.13345172795408
-3.21871971519493
-3.22246272294363
-2.99676520671893
-1.04121508765584
-0.683861348229953
-2.2833449522412
-2.00816460635679
-1.75217242291195
-1.62018440624209
-1.5651085004344
-1.59630220114246
-1.74152752915768
-2.02746522358829
-2.4923340242064
-3.11905191063241
-3.79441307947294
-4.40695482504825
-4.74332305476218
-4.69682313931403
-4.33640381040574
-3.8407721267724
-3.3256856139267
-2.98557696687932
-2.82673416154135
-2.82222921706721
-2.88843406825743
-2.97754507474089
-3.02444342495716
-3.05671902668252
-3.12148943666094
-3.20841988015633
-3.21727372801347
-2.96745002521348
-1.25002949281521
-0.448715175824593
-2.1134534744479
-1.96792766767072
-1.72385456470565
-1.59320101558839
-1.53689457550946
-1.56675796327587
-1.71436132536563
-2.00012817696989
-2.46398159265107
-3.0934295163138
-3.7725335975097
-4.38744538083187
-4.72491910020538
-4.67807206786899
-4.31618681856416
-3.81913957977781
-3.30323975860573
-2.96311670125878
-2.80508088481051
-2.80191044182472
-2.86947775658704
-2.95980244530228
-3.00764129322879
-3.0405053045868
-3.10533937468206
-3.19395071127327
-3.20834397349645
-2.93894892809213
-1.68881871392398
-0.51494806191815
-2.00120697306688
-1.9249770649389
-1.69125334937153
-1.56262846938384
-1.50552810014005
-1.53448499986359
-1.68398302215082
-1.96962269003464
-2.43304645449047
-3.06474644726892
-3.74738435265991
-4.36438017780517
-4.70268390620494
-4.65542178316084
-4.29213772436571
-3.79383263202049
-3.27731337696999
-2.93725483655384
-2.78003148588658
-2.77813993032666
-2.84698196407436
-2.93843471189768
-2.98716182321808
-3.02056736933087
-3.08543240492888
-3.17571625933562
-3.19608235082814
-2.91171998783488
-2.24459526012337
-0.973049350349884
-1.93932146503929
-1.87960676379786
-1.65429877891409
-1.52835848144043
-1.47110081837486
-1.49958229743518
-1.65046380770578
-1.93609989446735
-2.39964207757423
-3.03291487287961
-3.71905657175665
-4.33784492329637
-4.67681629514887
-4.62908770004555
-4.26446083494872
-3.76503464778122
-3.24805642342108
-2.90811085331125
-2.75168313328923
-2.75101106165604
-2.82104773254523
-2.91355472125325
-2.96312729606954
-2.99703881143998
-3.06190636904448
-3.15380813359743
-3.18029584086637
-2.88597908300733
-2.8279223846116
-1.46611736062784
-1.91282248319612
-1.83157996575345
-1.61347694879676
-1.49051794605514
-1.43348394538776
-1.46182849689505
-1.61380231785471
-1.89958280115743
-2.36377192853302
-2.99782135012837
-3.68749101697764
-4.30785456223157
-4.64733917978577
-4.59911653421828
-4.23319739102995
-3.73277750182723
-3.21549071895205
-2.87569548617873
-2.72004215008298
-2.72053055141344
-2.79168257196756
-2.8851663177002
-2.93554564467874
-2.96993154947745
-3.03477186367328
-3.12822038131438
-3.16076155083137
-2.86152535683354
-2.81862767185523
-1.61381514205685
-1.89456358627425
-1.78011402803738
-1.56904798278404
-1.44915085599212
-1.39260164063031
-1.42104968454711
-1.57395994732117
-1.86002832109838
-2.32538139589985
-2.95930427284027
-3.65259674646979
-4.27434761801676
-4.61422909679855
-4.56550232243622
-4.19833982471807
-3.69704715032417
-3.17959212361829
-2.83997129934892
-2.68506229053896
-2.68664942473217
-2.75883844260522
-2.853219222314
-2.90437030895944
-2.939202577142
-3.00398395917059
-3.09886261486074
-3.13735676537361
-2.83760478899883
-2.85829111467126
-1.83947474047769
-1.86750159284622
-1.72400989009967
-1.52093868659992
-1.40417211717733
-1.34849604505451
-1.37712581788404
-1.53087755000129
-1.81737924212783
-2.28435310144511
-2.91723783725107
-3.61426712000757
-4.2372471975894
-4.57743157613708
-4.52820811716416
-4.15985108014463
-3.6578029523193
-3.1403149205981
-2.8008827985232
-2.64668176166945
-2.64930268195773
-2.72244923288877
-2.81764345020524
-2.86953121116538
-2.90478319379886
-2.96947154794616
-3.06562299983013
-3.10990392280546
-2.81311538476851
-2.87250329439428
-2.05007521903284
-1.82844507743999
-1.66335217352635
-1.46902578152758
-1.3554806538744
-1.30121684102275
-1.32995458053208
-1.48448255629271
-1.77156262368745
-2.24047897557068
-2.87155408945242
-3.57239992948847
-4.19645946412178
-4.53687830754469
-4.48718134146325
-4.11767907237497
-3.61499033585522
-3.09760051399925
-2.75836228619613
-2.60482661563084
-2.60841237216427
-2.68243406856518
-2.7783553143632
-2.83094301559835
-2.86658839644346
-2.93114734307206
-3.02837611021351
-3.07820636096325
-2.78701769463062
-2.69232119486348
-2.12394767003715
-1.77875467973671
-1.59867540673005
-1.41317409899444
-1.30296881828866
-1.25080872539163
-1.27943677222192
-1.43469421201602
-1.72249334649998
-2.19343735366845
-2.82227676937028
-3.5269052996013
-4.15188227401172
-4.49249049583339
-4.44235804740208
-4.07176039135966
-3.56854418730675
-3.05138115139746
-2.71233421226432
-2.55941612327679
-2.56389368316919
-2.6387019573816
-2.73526224802606
-2.7885109172959
-2.82452286664628
-2.88891386092283
-2.98699462173836
-3.04203959835944
-2.75849896832996
-2.27400872476194
-2.03965471688203
-1.714985350031
-1.53012189616629
-1.35328549819816
-1.24653269672378
-1.19729554071313
-1.22546736498524
-1.38142727939213
-1.67007066309739
-2.14279006794759
-2.76953512855867
-3.47771080540714
-4.10340589004862
-4.44418236180647
-4.39366605620307
-4.02202314110282
-3.5183911595803
-3.00158143270886
-2.66271645836182
-2.51036392130563
-2.51565630583916
-2.59115624411415
-2.6882653817864
-2.74213341801708
-2.77848399786446
-2.84266662267148
-2.94135151456735
-3.00122566157285
-2.72697777236117
-1.93212087735011
-1.84099543780896
-1.63522351319589
-1.45758145291609
-1.28931297908187
-1.18608666454758
-1.14063287359984
-1.16793163057124
-1.32459664791427
-1.61417532386306
-2.0880302296303
-2.71354309032122
-3.42475761644643
-4.05091570877974
-4.3918632354628
-4.34102689623484
-3.96838863291558
-3.46445105307999
-2.94811955336518
-2.60942161328649
-2.45757974870287
-2.46360641551451
-2.53969906660736
-2.63726204705382
-2.6917048027519
-2.72836471018949
-2.79229700664847
-2.89132160089556
-2.95558181645438
-2.69192307322319
-1.70528433528666
-1.63952227823185
-1.54405338197152
-1.38078475671735
-1.22126552337341
-1.12150046004045
-1.08073876215727
-1.1067055868001
-1.26412117861418
-1.55467244017949
-2.02868971215856
-2.65452249607247
-3.36798576762255
-3.99429499905498
-4.33543980553544
-4.28435741743056
-3.9107727475738
-3.40663811866516
-2.89090820405116
-2.5523579067478
-2.40097052122853
-2.40764806871727
-2.48423178872781
-2.58214757473885
-2.63711721169969
-2.67405569844752
-2.73769458003104
-2.8367839741934
-2.904885032801
-2.65291365435011
-1.4800637862041
-1.50618179907088
-1.44711404753002
-1.29965628604396
-1.14917185863449
-1.0526724441195
-1.01752165368102
-1.04166264382748
-1.19992397410097
-1.49143194366761
-1.96447929572189
-2.59257780115225
-3.30731077711437
-3.93342897880245
-4.27481841094097
-4.22357123549173
-3.84908733218405
-3.34486217382697
-2.82985538751527
-2.49143013411191
-2.34044141931502
-2.34768463522296
-2.42465552782573
-2.52281700182551
-2.57826245478175
-2.61544748926379
-2.67874930738745
-2.77762581125723
-2.84902582427918
-2.60960730069199
-1.27176917371527
-1.40781490357666
-1.34611306508098
-1.21422051265458
-1.07298342842733
-0.979833543927166
-0.950811852413428
-0.97269232708371
-1.13193177800636
-1.42435780668058
-1.89539907228491
-2.52757124722339
-3.24260192717427
-3.86820929687001
-4.20990712637448
-4.15858015974514
-3.78324158500917
-3.27902976726246
-2.76486530109371
-2.42654049592765
-2.27589699101359
-2.28361993372747
-2.36087250492567
-2.45916674379045
-2.51503387472113
-2.55243246548061
-2.61535354213925
-2.71374601393343
-2.7879414949085
-2.56174041741907
-1.18420088578626
-1.30137246149401
-1.24026990236574
-1.12457142756514
-0.992602192518151
-0.903334824679252
-0.880400736696318
-0.899737298857825
-1.06008078421797
-1.35338951364718
-1.82176096693787
-2.45907470378671
-3.17367741524363
-3.79853770660631
-4.14061758740189
-4.08929563011738
-3.71314343231508
-3.20904540663147
-2.6958391590931
-2.35758946487698
-2.20724219356772
-2.21535931624401
-2.29278743796
-2.39109618687675
-2.44732805924513
-2.4849067851643
-2.54740422747917
-2.64505367851031
-2.72155247064988
-2.50873415070249
-1.14287906413281
-1.17872545927145
-1.12962052362521
-1.03097029632827
-0.908023580736536
-0.823203679849334
-0.806095059493794
-0.822843430073116
-0.98432723814754
-1.27849047096655
-1.74407210574798
-2.38644694972628
-3.10032549017141
-3.7243277906884
-4.06686625939832
-4.01563028877088
-3.63870113260415
-3.13481282184268
-2.62267602740879
-2.28447669897743
-2.13438344407969
-2.14280897555137
-2.22030892528624
-2.31850941034075
-2.37504660393213
-2.41277234042475
-2.47480492599105
-2.57147595511822
-2.6497784362283
-2.45088834776369
-1.05297029393941
-1.05923410861108
-1.01695755118847
-0.933649307704583
-0.819277399445736
-0.739253474523532
-0.727686583362811
-0.74219458130843
-0.904653869526648
-1.19959620048795
-1.66285975015968
-2.3090176045925
-3.02234562795559
-3.64550453880645
-3.98857540668596
-3.93749963910456
-3.5598248982182
-3.0562363256788
-2.54527390051266
-2.2071019749356
-2.05722978397131
-2.06587516371023
-2.14335058337834
-2.24131672050365
-2.29809791641998
-2.33593876793761
-2.39746784353635
-2.49295657507041
-2.57255193473551
-2.38762751962599
-0.994210352611256
-0.98245049261897
-0.905530431918869
-0.832773172330131
-0.726445598181317
-0.651294353701636
-0.644954879901554
-0.658089289976171
-0.821067405948863
-1.11662131139424
-1.57843802901107
-2.22630763891716
-2.93959010803399
-3.56200282263107
-3.90567420770473
-3.85482385354152
-3.47642876859679
-2.97322239337738
-2.46353074851294
-2.12536627499147
-1.97569387649451
-1.98446876924014
-2.06183274170717
-2.15943630364603
-2.21639890556005
-2.25432529822357
-2.31531589503464
-2.4094500606226
-2.4898410960355
-2.31865262289721
-1.01647630680845
-0.925240286397498
-0.792987351409435
-0.728915111158391
-0.629796493862694
-0.559202844631178
-0.557723603134754
-0.570843047964588
-0.733587329855696
-1.02953490610102
-1.49062272918943
-2.13827396899691
-2.8519858184587
-3.47376664944389
-3.81810066084585
-3.7675299799742
-3.38843273923718
-2.88568141096143
-2.37734587608109
-2.03917304788722
-1.88969313093974
-1.89850965415975
-1.97568412689183
-2.07279586192784
-2.12987680565146
-2.16786283410346
-2.22828468326093
-2.32092375536194
-2.40164189346233
-2.24355142798836
-1.0050113676349
-0.791933594423173
-0.672578727809202
-0.623143563657404
-0.529690851866922
-0.462992739191968
-0.465940661374179
-0.480676099752141
-0.642229232944494
-0.938361667934159
-1.39879284919169
-2.04530673740228
-2.75952335239651
-3.38075130067973
-3.72580424430289
-3.67555424745101
-3.29576522476046
-2.79352982129299
-2.28662165620526
-1.94842971832029
-1.7991510484014
-1.80792652126124
-1.88484329784403
-1.98133436060787
-2.03847106366114
-2.07649589182114
-2.1363246346567
-2.22735785870178
-2.30797050240179
-2.16175194470105
-0.880962478363338
-0.549407460728138
-0.544129849060793
-0.516178299393972
-0.426493478404156
-0.362842760700399
-0.369725300221891
-0.387674196181888
-0.546988228398254
-0.843024607765984
-1.30267085380759
-1.94766447214357
-2.66222053679059
-3.28292950696754
-3.62874921392706
-3.57884467497694
-3.19836574049962
-2.69669237972494
-2.19126540460738
-1.8530494880696
-1.70399869768676
-1.71265687391415
-1.78926015861421
-1.88500389102451
-1.94213527116912
-1.98018472214224
-2.03940312150621
-2.12874647948366
-2.20887985393577
-2.07289940646872
-0.688359694531259
-0.301573352049939
-0.418393192300519
-0.407950032800408
-0.320594884646983
-0.259085755821681
-0.269362932972472
-0.291838804522252
-0.44783166601317
-0.743399951920166
-1.20245247478493
-1.84534732186183
-2.56007552010533
-3.18029804134039
-3.52691789070255
-3.47736394349385
-3.09618798028152
-2.5951048754934
-2.09119184333903