/*--------------------------------*- C++ -*----------------------------------*\
  =========                 |
  \\      /  F ield         | OpenFOAM: The Open Source CFD Toolbox
   \\    /   O peration     | Website:  https://openfoam.org
    \\  /    A nd           | Version:  6
     \\/     M anipulation  |
\*---------------------------------------------------------------------------*/
FoamFile
{
    version     2.0;
    format      ascii;
    class       volScalarField;
    location    "0.0052";
    object      ddt0(rho,k);
}
// * * * * * * * * * * * * * * * * * * * * * * * * * * * * * * * * * * * * * //

dimensions      [1 -1 -3 0 0 0 0];

internalField   nonuniform List<scalar> 
18800
(
-113.054542392594
-206.091981888946
-165.884843734613
-27.5662800826389
-208.570018048506
-201.841970793271
-224.976162926622
-25.6952594607235
-610.29479567216
-840.120583795724
-618.102770332303
85.8820346916645
-314.890848899977
-183.648873436912
-191.590500020569
-109.365839585691
-563.18019843371
-1043.46173043482
-795.976834078895
-15.5852687332384
-392.673546781804
-140.379676442764
-255.602618619143
-151.021785465233
-432.358433871936
-1107.59397363217
-891.235732059056
-174.403489190025
-509.847165084907
-174.695260051614
-392.057732689667
-233.829776541232
-305.711789808526
-1110.44889807285
-945.421621313882
-342.749570229475
-642.919827237328
-244.94685528759
-537.212509556676
-356.366111438842
-199.971359839502
-1079.01852151582
-966.019113234764
-511.376012468394
-778.631470848384
-327.126837179397
-559.637707377438
-1470.15991886164
-116.003391081039
-1023.9521433213
-953.745647834193
-666.949764741349
-913.309236095033
-420.851793089096
-372.719722110966
-2320.25558627857
-53.9891794407506
-946.874415972496
-905.932925193165
-801.444233555728
-1042.57688590129
-526.453295406792
97.5711539726515
-2672.3600241033
-9.2503251022058
-847.911986488561
-820.857917964684
-904.205499989883
-1163.54765874001
-650.807465868607
589.693629056366
-2514.02345962753
-8.08215135363497
-723.499862563895
-697.166427463171
-967.116187522496
-1273.25069174567
-794.791135638921
888.266945691308
-1956.32652928586
-21.1675029826133
-571.663029611027
-535.690351491018
-984.881707500192
-1370.0381732465
-957.936969402645
972.7752378655
-1730.51789013325
-24.8518653476439
-389.215673665123
-343.102082446616
-957.705862910984
-1453.36147054085
-1133.82531433239
821.028413404765
-1144.11118757794
-11.3519218133423
-190.150836887073
-133.689285921676
-887.914726520947
-1523.55803393139
-1312.76452949501
489.880047164724
-451.615249781938
-0.229134785969056
-5.15022662034444
71.022537214126
-779.798551387006
-1580.47879710745
-1485.32409853865
91.7672490805985
-245.974527199769
5.10438394547609
132.22449685998
247.48625705019
-649.348881919233
-1622.65586977428
-1646.42523354576
-257.345081678564
-518.64064548771
6.08568130346975
204.81988824043
376.89539477357
-486.156197546269
-1646.76276828443
-1793.19572209418
-550.238981262579
-1012.03784330759
5.09075061456367
216.876591789731
453.713147921973
-345.493911431669
-1646.54488489121
-1923.79034214393
-836.335641860126
-1386.05621247021
3.61168782312695
188.680227358293
480.566586501967
-182.232632990793
-1620.0857915165
-2035.4455470949
-1145.43655738633
-1519.07949923413
2.293061000136
146.822943245534
467.454606679807
-105.0854686415
-1557.31268611262
-2124.93601353777
-1477.77538086463
-1461.58258069055
1.31965053899708
106.103928243253
419.224338845156
-65.1894457480013
-1472.58198022131
-2187.95682951373
-1829.03101526166
-1374.08268527481
0.682065884505319
70.4757428288719
343.521131106075
-51.0721541171215
-1355.07454467235
-2223.06340207119
-2187.40265176466
-1441.76224698826
0.30641598066305
41.7424172805658
245.74503755445
-197.973536424991
-1232.48635691161
-2226.29667475731
-2540.62060504726
-1775.73286263403
0.110175387168882
21.4200527853031
155.531796022158
-127.655520187356
-1137.0013475908
-2207.47345858891
-2863.45531012984
-2372.57470374738
0.0229564741417445
8.97360575065079
76.199154433461
-285.029714653679
-1024.86718212709
-2169.57858360509
-3129.55775828987
-3179.48834183612
-0.00691163606039824
2.48686042444678
18.6544013002207
-267.838588033802
-1038.31669126244
-2127.0953972283
-3314.05765870903
-4060.6688312806
-0.0114741823279776
-0.240421728431154
-11.7793930986152
-253.617112159177
-997.226740463292
-2106.45977083197
-3410.44872828013
-4766.95103966431
-0.00778549837320858
-0.987150047041573
-21.1869093842802
-310.580249123489
-994.620317127972
-2075.60957212264
-3443.95902242449
-5060.98910166913
-0.00364351601305057
-0.90156763086483
-18.6657076827244
-202.06609067731
-1005.19437808368
-2071.90421199941
-3442.79304958913
-4883.71726527439
-0.00140093302811909
-0.594451880857421
-12.703180329467
-176.940795691598
-857.402545921503
-2031.55240986109
-3453.94134486306
-4322.36909563827
-0.000228014889399154
-0.323097523319606
-7.26395783552167
-114.255717681657
-739.489074809237
-1904.81113109154
-3468.24963171439
-3496.41853696052
0.000270436366479449
-0.149541701093372
-3.65395564356295
-59.6013795313633
-536.1794877861
-1720.54811490461
-3451.63781118422
-2525.55872879549
0.000440318454829854
-0.059174323554044
-1.63845504533963
-33.0613040852913
-321.026763911924
-1390.54307391792
-3308.87849184772
-1582.13791903166
0.000499035545604189
-0.019898624034235
-0.657781852635891
-13.7951150699977
-171.965662204473
-1011.80880691208
-2922.81871328396
-1417.69288911908
0.000522893210020792
-0.0053703641695755
-0.239548465743942
-5.37671780001259
-75.2877116591395
-629.30359937182
-2329.64240443446
-2070.33455979684
0.000534963103805284
-0.000889208931192829
-0.0793079920282451
-2.17879611471234
-28.8792667515834
-321.717712425444
-1689.10385304508
-2945.84752538949
0.00054100347778342
0.000170272249262427
-0.0234015375677152
-0.588541194321584
-10.2126960843578
-139.182432002796
-1102.84787171092
-3125.18911357112
0.000547042839408963
0.000371575099789715
-0.00638331784438537
-0.157371636447587
-3.08728128639434
-52.8993144601657
-635.29949315135
-2557.89947879841
0.000550433050961336
0.000515362868553448
-0.00201387449426428
-0.0563218393653123
-0.814613497668484
-17.623599109961
-317.632775460558
-1695.31414047507
0.000551138764176976
0.000776879272787593
-0.000711217266939368
-0.0184037233050034
-0.19796703203454
-5.12398319319596
-140.625597918981
-974.388612922657
0.000551039633258454
0.00118321053641487
0.000372688703954246
-0.00573016029746464
-0.0418065028119052
-1.32283913683554
-56.4492968117809
-498.07202915115
0.000550360595150226
0.0016716084235491
0.000816472261517655
-0.00186008124235297
-0.00890358970866128
-0.305116854845932
-21.0773032600866
-225.375397124799
0.000549242567968283
0.0023135295960382
0.00098159292575886
-0.00117514069148698
-0.00717309473195825
-0.0637977763558396
-7.48949514498872
-89.6307063682457
0.00054797106445375
0.00308886840524935
0.00127217311680774
-0.00160922338768742
-0.00281833782382579
-0.0109642755170176
-2.59415979120842
-31.5910107825545
0.000546283509770411
0.00357916895369644
0.00365590868983685
0.000103598217408772
0.029353108827203
0.0158460818799598
-0.897024603585814
-9.66053211119828
0.000543881111479796
0.0036197992063345
0.00727197026177035
0.00350851015713413
0.00989905427776557
0.00621279483679922
-0.31869798681563
-2.4948832574724
0.000541043502492202
0.00329034456192526
0.00804713538366896
0.00088905109779653
0.00123953368623148
0.00485634329332634
-0.11524989322084
-0.453298303216344
0.000538753638524719
0.00269107227778854
0.00795905158538488
-0.00071851078367548
-0.0020625882002079
0.00778663301605158
-0.0396398569306655
0.0243136649668905
0.000538326385340814
0.00192379357201745
0.00659848259966484
-0.00124570100387094
-0.00372941895411741
0.00163806327587741
-0.0154578506831493
0.0736840847328546
0.000539642647614592
0.00129950468696719
0.00334704469273053
-0.00452700158297839
-0.00537568976918007
0.000132383977115977
-0.00687062049028654
0.0416697537276186
0.000541987778964787
0.0010594828964605
0.00132176019968695
-0.00338565908443558
-0.00434961837614588
-7.69820980241682e-05
-0.0033942666040381
0.0142675065393981
0.000544234906685483
0.00103679011304791
0.00022899538220945
-0.00930678007727986
-0.00625472429931384
0.000319168381300269
0.00486419262439808
0.00641614532331536
0.000546114063174537
0.00101974680472491
-0.000246670303953095
-0.00508521400578457
-0.00487498074643947
-0.00144394914467534
0.0322414123937467
0.0205920277340174
0.000547700928606166
0.00102921349784404
-0.000623130756890786
-0.00347560352535241
-0.00469858548096171
-0.00535624987042371
0.0447619407939496
0.0357209293883604
0.000548987341798357
0.00105774861455154
-0.000547832604612151
-0.00282466303737952
-0.00506476141782329
-0.00945849137820633
-0.00859334786419768
0.0131469352303969
0.000550062906208183
0.00108416159441883
-0.000137736532127925
-0.00188147352767419
-0.00481786394649714
-0.0106789975236064
-0.0738091959762998
-0.0396390831502669
0.000551016394081402
0.00105738918658859
-0.000453489439140058
-0.00173001697446889
-0.0051890929242669
-0.00967594881117238
-0.0959931379856641
-0.0904790614791441
0.00055163748985317
0.00111826093771537
-0.000606805230126623
-0.00229929753811773
-0.00611873152163088
-0.00898227787229335
-0.0652714251069392
-0.127815039058331
0.000552223668591965
0.00105082377283601
-8.44715131893876e-05
-0.00176606416029408
-0.00602491312844132
-0.00753049366863049
-0.0559232678828916
-0.170009659061675
0.000552400515604943
0.0011275758761037
2.4676031242212e-05
-0.00169371642939454
-0.00626325907543161
-0.00410847856395234
-0.0595842977801923
-0.184701158319115
0.000552561396010074
0.00110121539116215
0.000333133323873256
0.0015107553199489
-0.00406608667652139
-0.00520278630399263
-0.00685072204727092
-0.145800997892477
0.000552270689069181
0.00119350473771315
0.000665702560693043
0.00141242282729141
-0.00443659653510513
-0.0110554150814358
0.032493514809901
-0.0987370062011378
0.000552021829767507
0.00117411243729927
0.000760420674919327
0.00125330072388722
-0.00291360900980291
-0.0112095130561441
0.0207215403791973
-0.0520809336338348
0.000551527580962445
0.00117882940043272
0.000773490436059752
0.00154710863378306
-0.000852298585760836
-0.0105576299542159
0.0279488357362396
0.0270553484702682
0.000550832269116559
0.00116636192044427
0.000849382586601993
0.00203429355690543
-0.00220153813987162
-0.0137059399481495
0.042274553485468
0.0870556049904838
0.000549643990217483
0.00119192908260553
0.000950172333891067
0.00201799214947996
-0.00515338641922261
-0.0178179619087541
0.0556202557144798
0.08755292570223
0.000547676336376477
0.00127133525425164
0.00118134034558116
0.00198493616672552
-0.00657038293830443
-0.0202135642366414
0.00201988099343205
0.0178560660534757
0.000544766784946173
0.00138247502634996
0.00145437585046178
0.00190656938344053
-0.00767854693835856
-0.021614368270443
-0.06141127120912
-0.0606102381529742
0.000540258353756569
0.00155261617962197
0.00183044591893415
0.00190622460879005
-0.00857086061684824
-0.022414905225208
-0.0778275263614051
-0.0722571284450029
0.00053315924443375
0.00166563871907051
0.00209973168217236
0.00174465391820709
-0.00905095679479109
-0.0228746037013724
-0.0628127479048887
-0.0447482932102301
0.000518837305574046
0.0019337341643193
0.00239746822518084
0.00163978720453911
-0.00904721758876464
-0.0227611859171039
-0.0446931984457303
-0.0156634707250434
0.000492037028625366
0.00212489599336215
0.00286527134990828
0.0014466833341715
-0.00907246226218389
-0.0215783856745056
-0.0309624143407399
0.00132859147803108
0.00045379204936186
0.00210271818816755
0.00280709996011416
0.00104989679793713
-0.00907787245452776
-0.0192220474184971
-0.0212181759770394
0.00721483146075498
0.000580691590578435
0.00231279766905285
0.00286904982887743
0.000308416207003187
-0.00867584789855025
-0.0146897682194598
-0.0123103374942746
0.00818766195995482
0.000673108156380953
0.00238052701705339
0.00211464058914321
0.000262420858960214
-0.00422601172010954
-0.00631062670299326
-0.0028617781217983
0.00871740972287094
0.00064320085760029
0.00119402549586175
0.00105464437598893
-9.78959131592977e-05
-0.00228163284824447
-0.0024321147416079
0.000897803970347284
0.00711665490987559
0.000756689596685767
0.00148419577803573
0.000836838078384698
3.87399476750806e-05
-0.00121855514708077
-0.00230507914258015
-0.00231669098271141
0.000369211841569328
0.000755306502387006
0.00100459211470322
-0.000347083037544485
-0.00035912999367217
-0.000521313583446034
-0.00373706761373881
-0.0100276860416528
-0.0118221249708681
0.000709534326520624
0.00099728074304117
8.13638138911861e-05
0.000740605623119306
0.0013176380110301
-0.00405648723294273
-0.0174511405785864
-0.0257175746395356
0.000683326220669289
0.000997663486044664
0.000615205070247789
0.00197787804283357
0.00222413713065141
-0.00477011231283421
-0.0229626830480088
-0.0363697954525734
0.000651605840479208
0.00103626886893252
0.00127300503629895
0.00158937490770105
0.000130160151016994
-0.00790265649501407
-0.0271042836619914
-0.041075461877017
0.000623972781629099
0.00101995764380896
0.00184658653281372
0.00161208523618632
-0.00185663990035384
-0.0112883770819937
-0.029199907537146
-0.0384232151297718
0.000605403951948627
0.000961535014344479
0.00202978764226739
0.00119968487616076
-0.00389131815843391
-0.0140429319253472
-0.0287877549046144
-0.029514513631405
0.000592485896957166
0.000859140237364725
0.00190980124482362
0.000711016863189416
-0.0051775405270258
-0.0152280502185875
-0.026116444361107
-0.0181772948428667
0.000579885265644818
0.000731308780626147
0.00164447925814534
0.000216411547709675
-0.00582451724076866
-0.0152016325381418
-0.0225088872728518
-0.0102958627513526
0.000567681295843984
0.000596439500398199
0.00131174054311982
-0.0002829138723681
-0.00615320201492418
-0.014571592839514
-0.0191195712508477
-0.0113463832317951
0.000556882839286528
0.000464157773834854
0.000939112052507229
-0.000811039342282756
-0.00639911125983942
-0.0137634211158972
-0.0168982644777438
-0.0194960500352976
0.00054731436934023
0.000339577339583254
0.000540363928233606
-0.00138190964023808
-0.00664689290279064
-0.0129287973330459
-0.0160095891852051
-0.0259669285347622
0.000537616978590488
0.000224777518619106
0.000129986668826831
-0.00197255253718932
-0.0068736233814909
-0.0120923635933744
-0.0153089514075759
-0.0266345041779805
0.000525863280252127
0.000119196869371362
-0.000282261531486156
-0.0025518275595241
-0.00703176087596974
-0.0112509860841565
-0.0145145824842119
-0.0253465791598858
0.00050984273626362
1.96949756510781e-05
-0.000692571875719322
-0.00309290008700692
-0.00708143204159088
-0.0103897352134268
-0.0136631160240931
-0.0232971977573915
0.000487503528133365
-7.81170818884468e-05
-0.00110052702220539
-0.00357549798650002
-0.00699663355465075
-0.0094875374981042
-0.0126441968025458
-0.0189869369505866
0.000457525074832965
-0.00017787453935575
-0.00150841416611604
-0.00398913348136578
-0.00676353587230702
-0.00851161367120197
-0.0111784897697226
-0.0165836249187712
0.000419705752857939
-0.000281014049657207
-0.00192041545896449
-0.00433701616297231
-0.00638231227364789
-0.00741713563230842
-0.0099645329749279
-0.0155225388950522
0.000375107536174018
-0.000386171397371962
-0.00233843270416389
-0.00463509778765645
-0.00588754426013634
-0.00622166464119461
-0.00872966469416555
-0.0150281723418152
0.000325890410294595
-0.000489450831742466
-0.00275539659475648
-0.00489916780099107
-0.00534090747146003
-0.00500802962802641
-0.00743396008109606
-0.0141363743343779
0.000275107620800363
-0.000585890468963551
-0.00315574133435931
-0.00513869177033979
-0.00481128061127425
-0.00387300194789972
-0.00617042407330893
-0.0131131361101506
0.000226417755434309
-0.000669326699716265
-0.00351548051832064
-0.00534796547682372
-0.0043556233637625
-0.00291927568709008
-0.00504849331205925
-0.0121067456197401
0.000184322028858345
-0.000734300652532459
-0.0038205309560192
-0.00551679865727768
-0.00397132665960924
-0.00214375530294611
-0.00410283480478576
-0.0112404187532767
0.000150407215567444
-0.000779780466475398
-0.00401107129921836
-0.00558114039970393
-0.00368300202080828
-0.00171230659415883
-0.00364079182164903
-0.0107702239664676
0.000126808727824786
-0.000925721788195116
-0.00453593408286236
-0.00614054335907476
-0.00375530625392956
-0.00101448401101752
-0.00209626950327048
-0.00860812997802221
911.659138748298
-2118.90453891436
-717.478617991199
-379.010458711102
-464.770412735744
-599.11327539427
-670.926102419694
-756.702610090521
-824.786181066966
-909.447895962978
-1010.7884377156
-1140.12168370758
-1448.09702055364
-1783.80243366179
-1931.39450287418
-1800.24435176161
-1518.5428308479
-1231.17622260369
-1022.90460385096
-945.929840678754
-977.681669408923
-1082.26273797013
-1210.61256051827
-1333.31530226234
-1420.75248603109
-1490.25747610815
-1566.1893675043
-1667.75390968978
-1655.36070879688
-984.362622820158
3715.01765350458
-2346.17424081567
-799.398228420832
-242.619570629656
-621.640482790492
-1089.07334114308
-1318.68998343401
-1562.06737624603
-1727.56897695053
-1922.22533877013
-2165.27869446796
-2552.87045934169
-3578.38891146483
-4698.64624341545
-5170.00228751186
-4678.24280242482
-3650.14832473806
-2591.59798549768
-1810.50290165931
-1484.87887727316
-1542.4883915137
-1855.27554130343
-2247.13023732051
-2607.58898794808
-2830.73696674257
-2977.01403719963
-3102.2123117214
-3294.24545712517
-3693.35966538935
-3542.29191262392
5353.82731408413
92.703277021139
-432.73758708065
80.5022319399545
-487.002619807796
-1129.63870751667
-1433.18004817229
-1749.14771660128
-1950.23546142631
-2182.17431736522
-2482.43441559375
-3025.51306720426
-4458.0478352705
-6008.59150776148
-6640.10342038267
-5921.5752991652
-4447.20716075721
-2924.22512942439
-1796.39463955174
-1312.13615473542
-1372.30709454175
-1789.81154848219
-2311.84821918899
-2778.89733680058
-3044.02639657017
-3185.69893478287
-3277.29277324133
-3446.15886414274
-4168.90526919391
-4443.34859030251
6571.20938730867
1433.63395523192
-20.1674914396322
374.990233739527
-328.288472515488
-1086.71090536284
-1437.49585640505
-1824.42424717004
-2066.77655931897
-2365.66601998657
-2730.85960095318
-3380.4707474948
-5030.17165267693
-6791.9594779709
-7458.17239483179
-6564.53242922847
-4805.914659612
-3007.36260600898
-1685.79149381759
-1124.89150122517
-1196.65972854738
-1675.35695312927
-2265.94797914411
-2786.40504268519
-3069.57503993289
-3204.87683896579
-3277.05506000564
-3440.56865445332
-4415.52921016749
-5031.55203797766
7633.36217445503
3261.11085146453
472.187176118993
648.830916475028
-164.737621635326
-1017.20918625544
-1410.48051824186
-1871.68650088989
-2169.02313431867
-2560.80488438198
-3004.09260493407
-3709.14072809392
-5433.48661543302
-7251.86551556226
-7878.50397291726
-6845.76342660821
-4910.33497890974
-2964.42576660995
-1553.80091340564
-971.749823075572
-1059.93467658064
-1569.43604484392
-2187.93708347663
-2729.76287326582
-3021.39947448163
-3158.56132091167
-3233.51878260653
-3414.92503214654
-4352.41158662079
-5529.87510585824
8557.36590855017
4435.35132627335
956.028354604435
891.679189377369
-18.8095344677696
-955.126493129598
-1394.26969651575
-1921.62240046446
-2285.29628192428
-2777.6207293645
-3306.33335411961
-4022.13029980559
-5721.995524494
-7510.91189074732
-8067.03349227222
-6929.76161262805
-4889.97586408153
-2877.59009032744
-1441.49214927068
-868.340370021851
-972.047227357889
-1491.3131513412
-2112.36883091757
-2656.52822264397
-2955.41024185686
-3098.63153576663
-3192.23106103749
-3405.37976287151
-4195.00341451401
-5989.51726422515
9230.97482497446
5578.75132882389
1409.69909727738
1096.6216005085
99.9224225093348
-911.91047093382
-1400.4148035684
-1981.33340628767
-2414.51690312593
-3004.76118479086
-3623.0487755793
-4311.27131628839
-5924.86964758704
-7640.40745820888
-8120.98302516205
-6910.60878025191
-4815.80716255394
-2786.46942943032
-1361.1687596718
-810.801530799566
-925.943636949496
-1440.42730446102
-2048.55769147262
-2583.79744573647
-2886.70231522827
-3041.49255932123
-3162.94438519619
-3414.47486212444
-4241.25452778592
-6434.47028591842
9599.34788895362
6187.89742144562
1788.78864692791
1256.69320095246
189.270785743446
-890.015349760583
-1427.80028548912
-2052.34007932471
-2549.1942427237
-3230.29895530317
-3940.78199459221
-4571.14108315536
-6059.09108855111
-7681.12378067133
-8093.33129297512
-6837.85516461896
-4723.11218062478
-2707.77895550486
-1313.81574351496
-791.621290290595
-913.216245015921
-1412.77717389011
-1998.37707020141
-2517.77359371994
-2822.61258136956
-2991.90928132956
-3146.00454230254
-3438.18769952871
-3899.51868663564
-6878.3990742482
9850.81153826238
6010.99084384562
2069.89673651017
1363.66821417615
250.009732962091
-889.548638344202
-1472.7957616916
-2134.66893829512
-2682.86131087117
-3445.50140299274
-4250.74399564298
-4799.03041425564
-6136.04910429558
-7657.24586983462
-8014.35107140145
-6738.70123835951
-4630.11926861357
-2648.66068782015
-1297.45161052509
-804.405573992336
-927.516710800894
-1405.0151975997
-1962.09856475515
-2461.35539080684
-2766.48810700943
-2951.61875221043
-3140.4264127042
-3472.85039368925
-3654.11415603982
-7336.29348718071
10055.1543915066
5572.12477274046
2239.0214327658
1412.78055195871
282.033494609457
-911.420948902068
-1532.49211426739
-2226.99452216265
-2811.02108278693
-3644.58350490358
-4547.38790545466
-4994.47971943019
-6164.17295996022
-7584.3677414596
-7902.28701163108
-6628.77555111132
-4546.50004390162
-2611.89770180767
-1309.44530155521
-844.316220337157
-964.528049607529
-1415.00152542547
-1939.91704033345
-2416.8777825959
-2720.34480311935
-2921.5938995
-3145.4578897835
-3516.15681400737
-3490.5192900291
-7822.36078958234
10798.6773097031
5415.02329673156
2310.69473167549
1404.52106986979
284.323782279122
-956.877768741182
-1604.84884114818
-2327.64860710097
-2930.78271451151
-3823.81824578546
-4827.05967963326
-5158.34420632409
-6150.34317284702
-7473.20774575922
-7768.7456656381
-6517.39303485795
-4477.37619929875
-2598.12736238625
-1347.10722848277
-907.625718164176
-1021.2279947137
-1441.37386641669
-1932.06909090941
-2384.66218948189
-2685.61197837312
-2902.57754891984
-3160.70070047281
-3566.83989267448
-3398.01708172062
-8407.01266715833
11303.3265107755
5034.82609637896
2293.41998666989
1343.4825164456
255.997074397002
-1026.3087287979
-1688.79447205932
-2435.06741016833
-3040.39074660924
-3980.91319553889
-5087.21928278355
-5292.3519939656
-6100.55917370908
-7331.62971766449
-7621.3671875428
-6410.13559255351
-4425.22353200035
-2606.79281312549
-1407.80432050139
-991.325283124112
-1095.38999578418
-1483.23609948478
-1938.81237282902
-2365.77804984793
-2663.39230583938
-2895.20797098682
-3186.00755369785
-3624.52900191268
-3368.98132613967
-9063.20939436277
11375.4215425437
4478.51187942662
2189.38656909875
1233.49164377393
196.308569300033
-1119.38688663101
-1783.82947221907
-2547.85916497876
-3138.91089981418
-4114.59192242158
-5325.92911680246
-5398.79882326465
-6020.32055795111
-7165.69182632366
-7465.28378105445
-6310.23999637151
-4390.88595830806
-2636.62526044999
-1488.96675813709
-1092.84407808377
-1185.23610812234
-1539.91598015734
-1960.36843193954
-2361.01895842236
-2654.53674428139
-2900.02835438847
-3221.36937278035
-3689.53661968825
-3398.08964063749
-9764.4784896219
10906.1685680909
3870.14037325216
2000.45825447456
1076.10809063049
104.671672253562
-1235.19121426309
-1889.85310985546
-2664.78173222406
-3226.08653581054
-4224.3898444868
-5541.42850473419
-5480.39520356091
-5914.83716652582
-6980.26231370831
-7303.94709055643
-6219.38419713551
-4374.1468470788
-2685.90805376145
-1588.07808531552
-1209.87735051358
-1289.23114301481
-1610.82334835782
-1995.67558549013
-2370.9181409296
-2659.67333168386
-2917.47541659999
-3266.83623252983
-3762.63069151227
-3481.01558654908
-10486.63548945
9731.43656095311
3291.0031666386
1733.88782290799
873.193418685045
-19.4413074911526
-1372.24930022408
-2007.09443582851
-2784.68634929274
-3302.30684480117
-4310.56837067991
-5731.73720560208
-5540.17620575117
-5789.15195357509
-6779.38282053013
-7139.63296421211
-6138.16468438681
-4374.07680638479
-2752.63775146833
-1702.66570697858
-1340.27700328605
-1405.95018587695
-1695.35458125308
-2045.4697098629
-2395.7668284362
-2679.21208342587
-2947.85877531764
-3322.45721079037
-3844.71145325407
-3613.7426365678
-11207.7347685163
7701.19259171521
2763.74940462405
1399.6091622644
626.421586844738
-176.584209960572
-1528.62812994012
-2135.9817381256
-2906.44576749762
-3368.62100690038
-4374.08263777594
-5894.33884551382
-5581.44359060796
-5648.20108118093
-6566.49950699992
-6973.76408774295
-6066.40075050296
-4389.25618963468
-2834.6290553275
-1830.29652779638
-1481.98372048285
-1533.99569327816
-1792.83005808579
-2109.46966126285
-2435.61318633441
-2713.34128991198
-2991.33865039239
-3388.23325355633
-3936.44460815678
-3791.469529126
-11904.1783701528
5393.59408322814
2234.33373386182
1005.76464293759
337.110994461234
-367.435613119945
-1701.98136662565
-2277.04050192997
-3028.87143622519
-3426.7087883321
-4416.51817651665
-6026.04724391584
-5607.71768202193
-5496.82493248992
-6344.61479138636
-6807.12784215434
-6003.33819573855
-4417.92435107576
-2929.58777382334
-1968.57636814007
-1632.98407825651
-1671.94322242867
-1902.44757710349
-2187.21057394788
-2490.25986578451
-2762.01831368462
-3047.90224427791
-3464.07616904618
-4037.96020912681
-4008.05945494634
-12548.9323554333
3532.78671477303
1675.07687240073
559.460967920887
6.46236774636578
-592.992394233656
-1889.42509975254
-2430.96365828795
-3150.63443903504
-3478.71062070192
-4439.91216969498
-6123.1723521633
-5622.71257725594
-5339.73531286823
-6116.39311196113
-6640.03145532223
-5947.79105440202
-4458.08384962518
-3035.16374924005
-2115.15192982254
-1791.28396852449
-1818.30655264426
-2023.24589668363
-2278.00666127074
-2559.25774267869
-2824.95767648457
-3117.33975637952
-3549.77206162484
-4148.70557111101
-4256.39213943467
-13112.9547232025
2315.62149432891
1120.55314684099
67.4570952624164
-363.812678780708
-853.688575381956
-2088.4466929005
-2598.42958151125
-3270.21703917866
-3526.89212134143
-4446.40614281937
-6181.98977853676
-5630.37001452395
-5181.44872812969
-5884.23963049896
-6472.41785115934
-5898.24446327192
-4507.57498889352
-3148.99065395368
-2267.7148202722
-1954.89262073069
-1971.51569931072
-2154.07407704533
-2380.93496435145
-2641.8986865803
-2901.61856603839
-3199.22152062801
-3644.94795826839
-4267.4609155634
-4528.65129775105
-13566.7138598901
1600.77905940405
581.512501304546
-465.129589054572
-771.468088369799
-1147.73184761018
-2297.96447386914
-2779.79895886875
-3385.94953428983
-3573.25056984949
-4437.78385313014
-6199.33860827295
-5634.94976204167
-5026.19410539061
-5650.36575115737
-6303.95721339074
-5852.93140435748
-4564.13067677929
-3268.7164919359
-2424.00683467197
-2121.81402161326
-2129.90414473005
-2293.57001027662
-2494.8260890125
-2737.20891022209
-2991.19268789654
-3292.87632726948
-3749.04165661604
-4392.78513314333
-4815.88431785249
-13893.3928922903
1150.07174586479
22.4450685509346
-1035.76667329096
-1213.49882508141
-1471.59228565547
-2517.45309475525
-2974.94320293535
-3496.19082614344
-3619.22331002628
-4415.14879326406
-6173.09555452267
-5641.02045831453
-4877.80065380558
-5416.85315023092
-6134.12253478189
-5809.89186287175
-4625.41680755225
-3392.02705586913
-2581.82580768703
-2290.04351552276
-2291.70301576981
-2440.15751495781
-2618.26018532608
-2843.94420815078
-3092.59424133296
-3397.37232155887
-3861.2744107496
-4522.86586426832
-5108.44788583531
-14119.2042288471
652.441637836829
-607.513504137789
-1643.03404260496
-1685.51649028899
-1821.24443449322
-2746.0025885353
-3182.83989068876
-3599.63676321944
-3665.58192548873
-4378.98483979418
-6102.63170498142
-5652.9275586696
-4739.56978845018
-5185.72677879339
-5962.25442895912
-5767.0195508157
-4689.06197333471
-3516.66334973936
-2739.03180869936
-2457.56848732622
-2455.0407462127
-2587.66354059337
-2749.56893826563
-2960.58788821491
-3204.45259792616
-3511.50148283317
-3980.62695668923
-4655.91007563612
-5397.36745701006
-14292.7754122596
-178.444885445917
-1355.73930136345
-2282.53234070725
-2181.79798234359
-2192.26670333869
-2982.38469147909
-3401.05928827517
-3695.61822928064
-3712.48725622528
-4329.99597109888
-5989.48994742399
-5673.08735247665
-4614.16214341508
-4959.04269846402
-5787.61758593155
-5722.10030577745
-4752.67863875203
-3640.43403534304
-2893.55335487512
-2622.37216426889
-2617.94771226645
-2738.36481921659
-2886.89464038045
-3085.3530876229
-3325.10899911293
-3633.76813584909
-4105.81821250591
-4790.22571283021
-5674.29700501975
-14453.0814953511
-1445.95398347296
-2198.14989088035
-2940.99190572524
-2695.40946822338
-2580.01140410699
-3225.1866943028
-3625.51102423747
-3784.1680250996
-3759.61538071916
-4270.66428007362
-5838.41990686281
-5698.99224862148
-4503.610509494
-4738.98072993201
-5609.44945686699
-5672.84505974451
-4813.87780727762
-3761.22362032787
-3043.39384320877
-2782.44070141556
-2778.36478882306
-2890.13201864248
-3028.15134933385
-3216.18932377105
-3452.61790623802
-3762.3830639021
-4235.28894247784
-4924.18637793398
-5931.49432163713
-14605.0572604263
-3075.52654835778
-3045.03379633588
-3596.52992656667
-3218.1281180783
-2979.52550432617
-3472.81274914613
-3850.74815010122
-3865.76035850511
-3806.2662750673
-4206.26045520847
-5658.20213581183
-5720.63472341814
-4409.66469193609
-4527.90615515635
-5427.00111511704
-5616.92083857543
-4870.27768344155
-3876.99590882674
-3186.63723598512
-2935.77257856867
-2934.15525199052
-3040.67601798412
-3171.04010397811
-3350.79482184015
-3584.75442964966
-3895.26356327733
-4367.19062594736
-5056.12366174961
-6161.57604832001
-14668.2548151528
-4778.92451010041
-3828.09182104306
-4225.81429801223
-3740.25208077039
-3385.25515236147
-3723.26217132913
-4070.69991767774
-3940.90109817968
-3851.39362362648
-4143.49445308575
-5460.61220867774
-5721.68369257492
-4334.64523696336
-4328.3412627262
-5239.57454213083
-5551.98295062841
-4919.50767615616
-3985.79381983745
-3321.45366568257
-3080.39075961191
-3083.1207139326