/*--------------------------------*- C++ -*----------------------------------*\
  =========                 |
  \\      /  F ield         | OpenFOAM: The Open Source CFD Toolbox
   \\    /   O peration     | Website:  https://openfoam.org
    \\  /    A nd           | Version:  6
     \\/     M anipulation  |
\*---------------------------------------------------------------------------*/
FoamFile
{
    version     2.0;
    format      ascii;
    class       volScalarField;
    location    "0.0052";
    object      epsilon;
}
// * * * * * * * * * * * * * * * * * * * * * * * * * * * * * * * * * * * * * //

dimensions      [0 2 -3 0 0 0 0];

internalField   nonuniform List<scalar> 
18800
(
73457832.2774311
201517669.241176
230729472.633387
231062746.143728
225427128.542868
216599084.774407
195619936.977077
70027013.3317021
106478363.247494
205857983.244956
196982685.833461
180909198.388633
168743024.071077
157648837.907874
135636799.253258
34085214.9033732
77226893.4611137
180880819.231774
172011919.281082
156021439.871746
144098009.456882
133782750.151136
116413515.623823
29026968.4971277
50657209.2323731
148488239.804946
147233284.264732
134262624.324034
123826177.668803
114794782.357935
100793046.637463
29132416.2985875
32032106.0807467
118689889.18062
125724965.641444
116225330.649944
107409428.121032
99581237.4241394
87833651.7212783
30892025.5093635
19641115.6860558
93443286.4337091
107638348.290547
101483855.547753
94187041.0768204
87395308.1890137
77186790.9111915
32215029.131164
11624496.381111
72604838.820105
92382973.8012323
89328130.6779276
83422626.3804289
77522550.4983049
68437118.5538836
32272655.1772142
6609409.92959332
55613957.4761602
79329941.6839239
79124773.0135798
74507340.4018303
69392912.3440903
61212016.8311285
31572634.0529227
3584840.70690338
41914865.5932851
67974813.2936068
70382281.6286613
66981072.0663299
62580894.5939011
55193846.8152639
30451090.15335
1866809.96367558
31022891.6829822
57949564.141047
62734737.3161526
60504084.036747
56773801.8191512
50118030.1646217
29113497.3697369
959401.748649638
22506427.2573232
48999578.3353195
55912441.8518197
54824899.2334584
51740556.5328375
45774431.850704
27686371.6374624
494336.32033602
15963599.8529589
40958405.3792947
49716827.0664258
49755039.8821384
47308132.7076178
42001287.3672199
26236027.759861
253462.088133651
11024921.5790468
33726457.3285023
44002336.9777212
45151069.2797413
43344806.192446
38672964.6982767
24797610.7733458
128043.214758634
7373915.87860849
27252705.8443989
38664055.8904777
40902346.3886353
39748454.3643642
35693259.6248954
23389637.9406003
63334.5493826739
4749125.47466559
21518208.0877993
33630005.8738955
36922927.6379717
36438508.9377479
32990628.1050547
22019013.3389707
30633.0244493116
2931192.53973169
16521990.6518593
28856650.0274792
33146479.0767011
33350460.5736481
30510503.419074
20688396.9894888
14532.9432464034
1728463.03844003
12268012.8849617
24327574.4100791
29523471.1894023
30432195.5145204
28207984.3913346
19401365.2888465
6789.45115661671
973117.044341574
8753449.27619829
20053189.2824337
26020169.5893645
27641723.3964476
26045102.0126501
18163322.2104507
3133.46746928983
523827.933000642
5958707.0881312
16071328.1773328
22619060.4892696
24945912.3045249
23989565.7038243
16978133.0454972
1432.41631533054
270543.581685664
3839819.09490586
12443211.6251557
19320191.0778906
22320079.885558
22013955.2244799
15845521.5688874
650.566069371343
134721.796322719
2324000.21916001
9244263.13403071
16142647.1155759
19748322.7357954
20095166.8891853
14759694.1242757
294.927639462206
65084.83049256
1309836.24981322
6544341.89926053
13124866.030736
17224506.2455309
18214681.7383604
13711165.5030741
134.388984240115
30691.8805597068
684000.789857568
4386104.12306672
10322211.4435734
14753793.1605533
16359143.153425
12691349.7935572
62.0093841702836
14204.1684805927
335294.847130744
2766100.22058035
7800243.39829849
12354361.8279319
14520967.1851282
11695094.1490846
29.0535763338215
6480.68980314055
155741.305586477
1632351.73495377
5622999.54325295
10058617.7978468
12699698.050598
10719936.2898643
13.745951668286
2921.11773956217
69292.3859517642
896699.479058618
3837542.3992231
7912454.16324
10903853.340818
9762655.85394215
6.49865089977445
1301.5448308177
29837.1179457296
456576.418372593
2459881.84069292
5970942.41712373
9152821.13188298
8817085.85712226
3.04080686835795
574.011774209086
12542.3039316256
215190.71998841
1468658.26112177
4289037.72054381
7477108.5562073
7876149.12448452
1.40161535332186
251.473682287474
5176.60055629185
94350.8400954664
809619.40468147
2908700.55610982
5915008.8571758
6937413.62294651
0.637141604259414
110.102946200634
2104.58010819552
39039.6109303812
408755.247058347
1846349.69394883
4504383.88113871
6007288.96624478
0.288458802644183
48.5078154996206
844.992915924596
15478.283575969
187904.691240238
1086996.83434907
3274424.16201286
5104286.95915437
0.133568597911231
21.5570136225486
336.199020836182
5958.4639853843
79158.9930874177
588043.671753198
2247586.85048516
4255661.93106151
0.0667241418098451
9.6070400488821
133.477150393255
2242.8512095928
31023.6682269476
289727.760422743
1440478.11387497
3474065.60440348
0.0386350776015911
4.25028931766809
53.382127841913
829.33843950632
11531.165472385
129569.425178029
856129.534287714
2715179.65138518
0.0270215509176131
1.85257020890298
21.639079976802
302.723630365144
4133.5274462857
52993.5614592038
472134.887266677
1980207.3280455
0.0222444667978959
0.7945682464188
8.84360785878319
110.014207321399
1444.46958350402
20175.8502948459
240871.495242182
1327848.39710887
0.0202887358861385
0.338262972351666
3.5984358068038
40.2842522927214
495.552342871378
7300.41887381427
113663.440657053
818892.251953342
0.0194986803013347
0.146880629939189
1.44488730252662
14.9574664795488
168.218094692734
2550.21420581889
49969.9254744908
466757.70106872
0.0191865639732967
0.0690497243615182
0.573256497930484
5.58293985021305
57.1833483063301
868.350884465154
20753.0684262934
247203.674232934
0.0190666549041939
0.0383343365279414
0.228896654715944
2.06753015019995
19.6913684233412
290.257349506171
8257.43103991898
122341.725986868
0.0190219688876765
0.0264784688478119
0.0967621639459514
0.757024652812267
6.8474123635554
96.1422179081599
3179.59419452591
57044.4980039866
0.0190058265798262
0.0219612604015825
0.0475773895159914
0.278373341923517
2.3716002258619
31.9651048523137
1191.83820513159
25332.4279177514
0.0190001689847126
0.0202633276389885
0.0297164854300475
0.108326139517257
0.814336710070586
10.7310117329926
436.401380281556
10822.296077013
0.0189982356239881
0.0196382278260356
0.0233328457321344
0.0496526360496083
0.281242884282148
3.60052124490056
156.825594358424
4482.68530822691
0.0189975798991086
0.01941427882167
0.0210644498940492
0.0298300489987673
0.10349849329311
1.19518860863806
55.7855857848398
1809.19975670452
0.0189973440917706
0.019336204127298
0.0202384568421832
0.0231792566029894
0.046240058284703
0.395766380695939
19.8307542301275
714.070570762452
0.0189972338163457
0.0193095520106801
0.0199112582932004
0.0209391604993209
0.0281182699868323
0.136888842691124
7.04554999993342
276.496136973883
0.0189971464273832
0.0193014380333973
0.0197825974806372
0.0201883483993476
0.0224063294777869
0.0555217576961745
2.47935866356309
105.54912335159
0.018997051322494
0.0192984849733589
0.0197320924145241
0.0199450408532706
0.0206167270233642
0.0306583381256926
0.861327339972879
40.0315530688123
0.0189969387038685
0.0192971885817926
0.0197053440120732
0.0198676669273618
0.0200652822530242
0.0231664984926469
0.300225776800111
15.1813348520612
0.018996810723728
0.0192955197871431
0.0196896572014259
0.0198549179840018
0.0199102012858471
0.0209508865691006
0.111317484359225
5.74377948671519
0.0189966729119891
0.0192933906557196
0.0196745006752591
0.019851567764677
0.0198681931852206
0.0203276622780433
0.0498489636513088
2.15262502366042
0.0189965298681215
0.0192918003181956
0.0196628582255187
0.0198466606750814
0.0198569657677414
0.0201722663552304
0.0305440827023968
0.799164271677164
0.0189963862343659
0.0192903101777005
0.0196561336969976
0.0198417026486402
0.0198546478565354
0.0201364355858588
0.0245719114176607
0.299564263610193
0.0189962463160154
0.0192889456686948
0.0196512727290546
0.0198403154275302
0.0198570743529429
0.0201310237135423
0.0225167011097647
0.120084120131693
0.0189961141121845
0.0192880214190267
0.0196451151329401
0.0198379437013317
0.0198609658533589
0.0201384294776293
0.0215604430896648
0.0576166697720057
0.0189959941989858
0.01928773173465
0.0196383638024364
0.0198326342173511
0.0198636242048537
0.0201538049216665
0.0210483334951654
0.0367417409785834
0.0189958930445309
0.0192879864211109
0.0196337818980129
0.0198301756571488
0.0198681789988508
0.0201704485248187
0.0209180983027483
0.0297851437165091
0.01899581875064
0.0192890120507914
0.0196295010508451
0.0198266639126999
0.0198738887051753
0.0201901326685826
0.0209649578626166
0.0268351645741084
0.0189957828460341
0.0192908274338949
0.019625404932236
0.0198185268373483
0.0198766464931877
0.0202582038368449
0.0211029481086714
0.0252496523944176
0.0189958010815804
0.0192935474537794
0.0196207789795457
0.0197954552561056
0.0198732570258973
0.0204039604833886
0.021453431965224
0.0251659458983975
0.0189958942223216
0.0192975434816037
0.0196188763921313
0.019776482787245
0.0198742898774912
0.0206222213164116
0.0219651489831723
0.0265295042694795
0.0189960922681299
0.0193028363255181
0.0196204819885139
0.0197651799302922
0.0198661961954398
0.0207360883952362
0.0223467686635689
0.0279876416390821
0.0189964366984063
0.019309617806232
0.0196257913143637
0.0197607567114156
0.0198637892819587
0.0206357879692778
0.0224511695897655
0.0289685580885488
0.0189969877859915
0.0193177421713929
0.0196339900738393
0.0197621731140673
0.0198863029112559
0.0204978737224773
0.0224835534365242
0.0295396495414984
0.0189978305759827
0.0193272304500387
0.0196440202687819
0.0197697478999326
0.0199127078050475
0.0204154053464087
0.022539455580146
0.0297620019504574
0.0189990863272762
0.0193385415975511
0.019656079879183
0.0197797585215832
0.0199375216109425
0.0203989361992256
0.0224703140331573
0.0294967240192956
0.0190009406762362
0.0193520634518559
0.0196706233937502
0.0197951707267201
0.019981364288076
0.0204393573475952
0.0223755466966494
0.0288947085378371
0.0190036916987583
0.0193681400259512
0.0196874731629691
0.0198145286800588
0.0200172467692407
0.0204938140824866
0.0223133669967268
0.0282349024807002
0.0190078096944736
0.0193881913876853
0.0197086558087815
0.0198382374789655
0.0200534265732618
0.020551783403608
0.0223032006213262
0.0277114867743296
0.0190140281398029
0.0194123787096893
0.0197334345873536
0.0198661731586298
0.0200919386532694
0.0206095677705498
0.0223313957385879
0.0273711263951233
0.0190233003466647
0.0194406316144566
0.0197613634871749
0.0198995106573843
0.0201362291861953
0.0206698660663383
0.022379467237567
0.0271775233607647
0.0190347792166963
0.019471686725033
0.0197916688304952
0.0199341159601466
0.0201876725758954
0.0207379633190235
0.0224382357720747
0.0270768484374918
0.0190373746676414
0.0194959864820463
0.0198151871915201
0.0199783696594833
0.0202493198941976
0.0208134119778502
0.0225004381969104
0.0270235909359834
0.0190385213942504
0.0194996639683133
0.0198212856058433
0.020011442614198
0.020298609066198
0.0208780089635548
0.0225521143228372
0.0269876364547382
0.0190404264017017
0.0195004625956669
0.0198210768914401
0.0200365980491391
0.0203366743080386
0.0209302703269939
0.0225907771343808
0.0269628764311998
0.0190424940891053
0.0194964419682775
0.019814304460667
0.0200560228747457
0.0203713061337394
0.0209802448912244
0.0226260326943592
0.0269591978383167
0.019044448640211
0.0194938220964733
0.0198112413210749
0.0200766580848903
0.0204083667581265
0.021034937072113
0.022666383698144
0.0269796647786639
0.0190463462447482
0.0194916810373575
0.0198091727672116
0.0200970085240259
0.0204461161307462
0.0210933565019461
0.0227134699490648
0.027005563369151
0.0190481654205524
0.019490357836003
0.0198095207915923
0.0201116527701195
0.0204811577710089
0.0211536824751682
0.022767711638015
0.0270121075238899
0.01904991465765
0.019489834768851
0.0198118535992821
0.0201265985762483
0.0205168077015484
0.0212163697828706
0.0228275677380159
0.0269995001212463
0.0190515953457281
0.0194899629630845
0.0198156094648453
0.0201422746253759
0.0205534791866887
0.0212800270900843
0.0228894477596327
0.0269842852836056
0.019053205739497
0.0194906966668536
0.0198205392425293
0.0201592344131231
0.0205909412002769
0.021342176629539
0.0229490123721141
0.0269711157596781
0.0190547474106873
0.019492016578368
0.0198264819936341
0.0201774702352826
0.0206293499761815
0.0214027289609645
0.0230072918446916
0.0269597272468345
0.0190562166335955
0.0194938872406489
0.0198332982759785
0.0201967842088715
0.0206686851160288
0.0214623671948706
0.02306710874762
0.0269407769565234
0.019057608569645
0.0194962632609163
0.0198408964553314
0.02021706701634
0.020708907853649
0.0215219060654924
0.0231300458236916
0.0268920331679817
0.0190589212076545
0.0194990973379515
0.0198492016596231
0.0202382156308939
0.0207498529027446
0.0215818588313289
0.0231934596843295
0.0268180281544502
0.0190601546513923
0.0195023390853736
0.0198581312085082
0.0202600750021583
0.0207912200506638
0.0216423023010952
0.0232573888817455
0.0267398324120838
0.0190613095853993
0.0195059305101276
0.0198675848194957
0.020282449058888
0.0208326910862267
0.0217030751282295
0.0233214410391591
0.0266659526760752
0.019062386769482
0.0195098047535706
0.0198774412661903
0.02030510716487
0.0208739350665099
0.021763791698169
0.0233852470784187
0.0266062426192204
0.0190633867220538
0.0195138860071777
0.0198875573742772
0.0203277870714596
0.0209145704536695
0.0218237047163639
0.0234491249502339
0.0265846407551918
0.0190643092217451
0.019518088980375
0.0198977671669074
0.0203501966419648
0.0209541423131351
0.0218818493059377
0.0235156317186864
0.0266004232011197
0.0190651527531376
0.019522318708928
0.0199078817329695
0.0203720097599999
0.0209921593514514
0.0219374626037136
0.0235833993411489
0.0266242724146817
0.0190659138900647
0.0195264714692408
0.0199176933583257
0.0203928636366554
0.0210280980153482
0.0219899239648426
0.023648518788438
0.0266467204232477
0.0190665871993791
0.0195304378783049
0.0199269791083854
0.0204123466504681
0.0210613104269929
0.0220383054614994
0.0237089115058788
0.0266655863567094
0.0190671646397478
0.019534089953724
0.0199354639115715
0.0204299346308741
0.0210909658016453
0.0220814297977915
0.0237632020071815
0.0266829729049532
0.0190676309915048
0.0195372452222825
0.0199427709472025
0.0204450402248146
0.0211164685779984
0.0221191545202307
0.0238122031096435
0.0267040303438053
0.0190679751249374
0.0195399391879724
0.0199491404272545
0.0204584576005141
0.0211399703797993
0.0221562719383118
0.023865860841321
0.0267493959646765
0.0190682262595165
0.0195423624387275
0.0199548835385694
0.0204700198945768
0.0211588225459926
0.0221823140075541
0.0238961628003986
0.0267549798088397
0.0190682234778672
0.0195402779647876
0.0199494550262499
0.0204576972436009
0.0211325609065471
0.0221285966391482
0.0237920057136099
0.0265421617964951
148681008.828762
182298825.655952
200636472.308297
213479378.931145
223136896.551568
230829483.563742
237532710.63187
244125642.69712
250980358.610398
258251666.559244
266088333.98524
274537301.852168
283721543.142033
293768131.632456
304751472.720779
316742287.177208
329835104.799075
344178862.952461
359957045.906129
377412785.954747
396857129.946894
418692474.855383
443458659.373041
471912658.650585
505181502.176678
545087006.15583
595005812.749478
660925395.215203
638555996.655575
274353649.732935
75709087.502466
92352749.997822
100763150.642814
106644322.00156
111201686.623103
114930033.235203
118241048.488304
121530574.029692
124983012.311539
128674076.402697
132665976.267858
136991852.655044
141721471.550125
146920774.831266
152626941.08619
158878146.096907
165727777.257233
173259957.408084
181575445.367355
190812047.209198
201148008.998453
212815847.119755
226130074.37708
241536185.047508
259704964.801942
281736769.30729
309721743.496886
347381045.846513
309456373.588661
122891043.10876
69129347.0509171
83506981.4269121
90028981.6634787
94538587.8132269
98188061.6838049
101294103.494214
104130654.105915
106995316.728202
110039829.111241
113323594.153167
116886521.003216
120767013.674559
125033532.928907
129744885.423654
134933068.654976
140633943.610089
146898642.732324
153808534.752557
161458919.831978
169983355.931594
179556559.448897
190407888.954665
202849465.198585
217326632.516761
234515336.159184
255536233.543261
282554080.092413
319341682.004289
259525616.692652
94183841.3569255
67921937.8728139
81362532.7785823
86967924.7057636
90721725.0133434
93866359.9435239
96635392.631419
99225220.7758424
101883286.732767
104737726.367465
107835127.835528
111201879.685381
114879714.685899
118935830.122857
123423703.165801
128372007.313799
133814932.508333
139801482.42602
146410739.285935
153734299.492129
161901210.306745
171081212.83518
181497546.213101
193454377.505102
207386505.447965
223954849.539737
244258555.835146
270425147.797414
305933913.077986
246344423.244923
86139837.5949927
65516690.3650642
78053833.7837809
83053044.0590851
86247769.8196171
88973649.3294901
91430078.0526805
93768468.1214712
96203138.9516839
98839326.8287466
101712507.585056
104840278.48882
108264288.306947
112046473.244103
116234507.498849
120854230.264283
125937033.166524
131528180.515575
137701624.093483
144542699.233537
152171021.363837
160744204.816285
170469518.88868
181629086.054359
194625883.081218
210071463.443746
228982437.704728
253313927.730232
286024750.540188
244249348.401268
83688268.4433464
61955454.5262525
73563446.05974
78159211.2914924
80953081.0532971
83337249.6735783
85510460.3359365
87604665.1535357
89811941.2720049
92217510.1908049
94848603.9711272
97717901.0528702
100863998.380498
104341445.120862
108192999.174876
112442177.332897
117117244.339626
122259202.522996
127935728.84628
134224941.344346
141235222.565803
149109289.553325
158034640.226209
168265942.411179
180166173.728189
194284447.398035
211531263.005664
233637029.378801
263019082.035317
240102535.536288
83127676.6524362
57905462.630221
68600708.2057847
72926931.678459
75443174.4066665
77554534.5445147
79481046.4479892
81352327.4278894
83344867.6326239
85527868.9742571
87923023.0042548
90540819.7521153
93414429.7339896
96590896.3200059
100109054.618544
103990522.208161
108260562.080001
112955970.480862
118138041.617484
123877694.824086
130272077.182588
137448805.434583
145575297.822173
154878305.92939
165680031.920562
178466097.634191
194037726.226419
213894645.828516
239970195.084339
230980923.249128
83062431.2588682
53789619.9373284
63611424.5641218
67753332.4483477
70081163.7018205
71974993.8733991
73689761.9235163
75362807.4815695
77159045.9951132
79135679.1445855
81311009.9777256
83695144.210394
86314009.4909129
89208092.4513818
92413006.741282
95948804.1967113
99838023.578217
104113521.672204
108830524.738315
114053153.770968
119868026.730919
126388509.048306
133763058.186176
142192065.165411
151959207.936038
163490407.039612
177483139.55549
195219556.97267
218224693.657103
218154821.246991
82799176.5196975
49799250.5676033
58808952.4006729
62822527.2072129
65025091.0122963
66744912.8036183
68278695.4617792
69776994.9149
71396048.0563028
73184439.9240607
75158742.1691368
77329864.6082441
79715270.6037597
82350121.2370124
85267283.8287834
88485504.2100706
92024902.3179037
95914720.1924712
100204573.217971
104952303.574967
110234928.819206
116152769.980273
122836927.995065
130463673.953537
139281451.820183
149661936.689581
162207499.063696
178002560.250536
198236164.229625
203703140.736806
81910683.4801985
46008187.2210932
54283806.6149558
58204751.0014804
60326758.3083304
61907328.8388406
63286499.9535711
64631043.9298515
66090914.4269291
67708695.2177939
69500476.6453225
71478764.8469756
73651959.0279656
76050976.8494006
78706290.6899168
81635547.1618067
84856736.0682069
88395809.7194295
92297256.5475558
96613173.8589044
101411932.482296
106782083.559363
112839067.993578
119737406.321425
127693963.192911
137031490.128391
148267091.56869
162308659.378265
180071399.296402
188878050.757523
80062052.6133659
42452163.2923633
50065879.0650392
53915641.7195801
55988967.6365304
57458415.6831483
58705508.6955033
59914762.5534198
61231830.8574648
62695323.3440136
64321745.8065071
66125731.8005441
68106597.9984057
70291790.2767116
72709669.8775069
75376956.2418459
78309767.8176181
81531072.023702
85080695.6803993
89005499.8583429
93366110.9967353
98240535.1707905
103730183.549449
109970099.840692
117149080.584401
125546116.987913
135602585.606141
148070432.530551
163641651.31008
174330770.887393
77702857.4153789
39151944.7530212
46152079.3458976
49945699.1790446
51993375.3545376
53374718.5721011
54509093.1346248
55599278.4535762
56788270.6062688
58112311.7985191
59588913.0278868
61235180.9384041
63041840.828416
65033300.1228826
67236049.8885995
69666032.8725829
72337723.6788756
75271383.751671
78502608.9027225
82073494.0259786
86037746.1406536
90463957.6805203
95441015.3997108
101086580.813399
107564629.56733
115115180.461466
124112741.987738
135172463.349471
148803004.305897
160390108.577359
75112450.6207242
36102389.9026631
42524640.3897137
46274685.3103446
48313550.2568304
49625805.6708811
50664230.5624429
51649659.6270986
52723779.6612663
53921781.4853791
55262505.5678475
56765730.7032377
58414523.0016076
60230364.3649921
62238087.2945643
64452994.8832208
66888117.0676453
69561262.4010166
72504187.7065023
75754650.693795
79360181.5289299
83380985.0165744
87894787.8386381
93003761.9362698
98850016.1754107
105638938.007057
113686235.76136
123487730.844632
135399592.604111
147213398.363761
72457448.9241907
33281474.441465
39164966.7522326
42878784.4483594
44921064.220397
46180044.2022739
47137161.0587735
48030547.786811
49001655.8530116
50085747.1626755
51303088.299483
52676200.7143489
54181806.8775809
55838285.7902586
57669004.7170011
59688754.4284037
61909295.2474479
64346212.4216451
67027778.4600335
69987803.6207736
73268304.9346545
76922021.7471441
81016746.2700746
85640877.4254489
90917258.7239843
97020602.4668574
104215069.523474
112892940.60472
123281795.452121
134866448.606965
69840568.5837183
30657104.1158738
36055567.277356
39734102.9495642
41788268.799529
43007150.5045016
43895831.1388228
44708558.9393129
45587349.7949151
46568534.8809497
47673713.324868
48928100.5865656
50303715.6479514
51815407.1393981
53485261.4487114
55327674.560297
57353292.476414
59575686.308556
62019964.7514711
64716344.422448
67701920.8346654
71022793.2999495
74737915.9775515
78923513.8735646
83685302.9105959
89171047.8341725
95599800.8685886
103274501.216889
112313210.664729
123365510.348259
67329808.2155418
28197061.5560419
33178051.8716067
36818321.492927
38889471.7309172
40079216.0802178
40910833.8367348
41653178.845683
42449345.0384099
43337651.7836758
44340788.613523
45486507.2956236
46744009.7311921
48123997.596486
49647456.1242573
51328490.9236999
53176773.3798339
55204052.4128827
57432562.9447341
59889249.5219657
62606813.2275589
65625450.9861176
68996258.0585221
72784711.6559959
77081320.4341819
82010215.832554
87751100.5671936
94530308.7464494
102372484.524551
112699733.655085
64959739.9850049
25879871.6235442
30514228.9979556
34111268.7212324
36201372.5605192
37371013.7533659
38155648.0999969
38836957.3676593
39559335.6431955
40363943.3899695
41274221.2241768
42320207.1019359
43470307.3522284
44730362.8413067
46120428.0307197
47654403.7395081
49341114.822164
51190665.7472551
53222680.907053
55461125.6382938
57934776.5173184
60678587.1216245
63736667.7556976
67165021.9484714
71040672.0309864
75467062.5377679
80589687.9559943
86569677.4182672
93352778.958221
102843072.397538
62732529.6432485
23699965.4732028
28047694.658615
31595045.8904892
33703129.1721368
34859971.3853232
35606560.0778893
36235383.1990055
36892089.1659947
37621435.154731
38447240.8271369
39401511.5998901
40453873.0832023
41604616.570513
42873010.426192
44272810.8850599
45812116.6200624
47499553.8938782
49352376.382213
51391837.5604739
53643209.0118243
56136790.0576238
58910485.9963082
62011968.1788809
65506312.2595726
69478896.4386208
74045590.5463229
79312498.7717897
85160142.0232084
93760586.6677866
60628528.7870468
21663110.3561541
25764626.0764894
29253842.0060592
31376235.2703597
32526000.8285678
33242442.5247779
33826630.8055758
34425181.5778838
35087049.6391756
35836098.8965336
36705940.7879908
37669275.7044255
38720321.6180831
39877650.9074606
41154905.0363497
42559572.9548586
44098959.7938205
45788167.9048269
47645983.5566257
49694548.4591294
51960034.6839304
54474838.5048906
57279325.627703
60427999.8776837
63990505.7998826
68057170.2458895
72688135.4008455
77711716.9601811
85412129.9323619
58611858.1876628
19777675.5565545
23654094.2900482
27073855.8093956
29204303.0095011
30351252.9821319
31044489.5548586
31591273.7894565
32138693.601958
32740290.4575108
33419736.6922489
34211865.4870609
35094010.9561269
36054099.2984293
37110000.3561766
38275239.9254986
39556813.4949746
40960854.8444299
42500516.6394065
44192342.3612724
46055679.8551949
48113045.8709574
50391948.4070397
52926375.026512
55761482.132408
58953259.21266
62570120.5463903
66634283.0572363
70934101.2558323
77754555.2183711
56635662.6644515
18047717.8730901
21707221.2306229
25042986.8582202
27172810.2814943
28319845.6440352
28995954.2114126
29512001.4226412
30014910.0991526
30562933.7689333
31179463.5091971
31900154.665923
32708134.0804713
33585252.3817505
34548516.8349906
35611313.5570683
36780263.6985016
38060473.591372
39463332.4763142
41003347.3712924
42697373.7584401
44564696.094741
46628487.0834923
48917199.1635746
51467727.2526414
54324260.3367239
57536524.613368
61095903.6571612
64761992.4370929
70743211.8178969
54651306.6647317
16468879.1414893
19915812.3520557
23150554.6890116
25268870.3595965
26417608.0167909
27081894.8719792
27573354.4006296
28038040.3390697
28538743.3335168
29098660.3772455
29753849.0337565
30493923.7145492
31295420.9674098
32174103.7084323
33143188.1874763
34209044.6222978
35375890.9284774
36653525.9645617
38054610.3833993
39593778.3022488
41287461.442221
43155014.252955
45220049.3617164
47512233.8716689
50065588.0173668
52914008.8401087
56024268.1968071
59137119.115594
64333056.2437441
52617771.6748658
15031060.8442963
18271560.6566427
21386834.0197875
23481039.7822893
24631840.4714069
25288940.021013
25761488.4427442
26193965.3957237
26653214.0830114
27162511.2452929
27757866.9729646
28435589.6271245
29168277.5927733
29969788.0034594
30853153.1915862
31824618.3673924
32887647.9536533
34050612.2583275
35324501.0871901
36721971.1669575
38256942.3261279
39945432.8844745
41806788.0344148
43864424.2514868
46143629.0827613
48664999.9132787
51376118.1097784
54007389.6693979
58479447.6341263
50502687.292219
13724688.7679921
16765326.7075325
19742597.2552043
21799140.532596
22951093.4319035
23605079.3328623
24063967.6826673
24470013.9135423
24893344.6905116
25357758.0090457
25898739.5197317
26519033.1954546
27189261.3043353
27920438.7415794
28725430.4525429
29610478.5673588
30578425.6613624
31636366.0106286
32793780.9729478
34061569.8654692
35451446.923959
36976526.0865904
38652404.8975175
40497118.1012116
42528500.1289138
44756081.2326874
47112939.6441962
49326181.5061557
53138806.5433731
48277531.6509271
12543080.9183328
15386038.5122055
18208674.3881565
20213990.97159
21365025.2946684
22019482.4906578
22469584.9820361
22854765.8405641
23247437.8610918
23672477.2516832
24164371.2808237
24731659.6228651
25345346.593453
26012522.2915665
26745919.0508989
27551882.3691831
28432762.6092568
29394523.0043277
30445287.0573655
31594395.3120249
32851631.8302193
34227593.0469806
35734600.4844439
37386079.5729191
39193550.0232856
41157439.4452766
43200340.2232269
45051721.3455193
48269121.631517
45910096.5280311
11478801.6452403
14120379.6108201
16775597.7643661
18717082.8621029
19864312.8479361
20522343.0525203
20968204.3587764
21337882.8959092
21704926.3684544
22095885.2382205
22543834.4445726
23062219.320678
23624840.7277503
24233890.9754557
24901974.9808268
25635619.2878853
26436811.6188473
27310523.2169583
28263659.7178282
29304182.5094272
30440193.2455258
31680117.62261
33033428.6928446
34509628.7050763
36114933.4529386
37842390.2877467
39607514.1796863
41146533.6864438
43830308.291003
43352510.4801968
10516958.1061118
12953373.4395427
15433340.6547198
17300355.9393221
18440516.955424
19104742.0181158
19550621.6504274
19909963.3090318
20256222.591554
20618180.8258058
21027206.7426936
21500648.8939584
22017202.8972302
22573601.2201673
23182221.4362995
23849812.1751166
24578130.4535303
25371289.9204279
26235108.8542646
27176332.1450205
28201602.0054287
29317484.2025011
30530990.4713332
31848308.6637064
33271245.9520392
34786973.0487277
36306785.5751559
37576948.4504782
39784459.4121881
40529120.9770657
9633329.19767057
11868881.4902279
14171222.9834391
15956056.5605037
17085917.2836773
17758527.2421851
18208441.5620873
18562417.2667394
18892589.2216892
19230423.5175783
19605449.7391937
20037907.3356027
20512882.2817985
21021757.9354049
21576385.3946155
22183745.8346721
22845501.7439365
23565039.7785351
24347213.0000591
25197697.3335435
26121876.2528611
27124734.1053904
28211171.3720726
29384600.8253098
30643211.6204315
31969603.8229342
33273216.9356515
34312665.8378163
36096135.1190806
37443878.460237
8799320.86617841
10849972.1220644
12978052.8367076
14676627.3529155
15793358.3495149
16476206.6923411
16933970.5252581
17287359.4097988
17606028.9054761
17924433.267413
18270309.2111362
18665821.6228444
19103180.1014494
19569382.2363909
20075156.5539904
20627719.2946696
21228777.9344264
21881119.4476359
22588746.5903195
23356400.3815436
24188386.2512642
25088356.5637776
26059416.5267283
27102680.6617827
28213415.7616857
29370778.8619447
30484274.1310278
31326375.6701952
32732758.5357517
34170900.1757258
7987860.47242063
9879327.82338257
11842486.7505715
13454617.5625808
14556114.1401829
15250854.8463968
15720125.0511145
16077515.7400414
16389190.7385927
16692702.1528129
17014219.1972994