/*--------------------------------*- C++ -*----------------------------------*\
  =========                 |
  \\      /  F ield         | OpenFOAM: The Open Source CFD Toolbox
   \\    /   O peration     | Website:  https://openfoam.org
    \\  /    A nd           | Version:  6
     \\/     M anipulation  |
\*---------------------------------------------------------------------------*/
FoamFile
{
    version     2.0;
    format      ascii;
    class       volScalarField;
    location    "0.0052";
    object      epsilon_0;
}
// * * * * * * * * * * * * * * * * * * * * * * * * * * * * * * * * * * * * * //

dimensions      [0 2 -3 0 0 0 0];

internalField   nonuniform List<scalar> 
18800
(
73457843.7260564
201517694.643867
230729492.856329
231062749.510231
225427124.97919
216599066.379942
195619913.336925
70027009.7893062
106478380.718847
205858007.92707
196982701.067627
180909198.702681
168743015.925294
157648820.431735
135636776.696935
34085211.8676811
77226905.5448409
180880841.455208
172011932.860928
156021440.529341
144098001.688638
133782733.922532
116413496.803142
29026964.1813495
50657216.6311046
148488258.815652
147233296.647384
134262626.103447
123826171.614298
114794768.33776
100793032.657994
29132410.6568545
32032110.3999968
118689905.147883
125724977.06114
116225333.477288
107409423.879347
99581225.5967273
87833642.0913159
30892018.6912565
19641118.0878409
93443299.7348371
107638358.851486
101483859.17496
94187038.4504837
87395298.2168334
77186784.2296675
32215027.9829495
11624497.6178771
72604849.8168684
92382983.503502
89328134.8480737
83422625.1378574
77522542.1289013
68437112.4059009
32272658.6904148
6609410.48829906
55613966.4550538
79329950.4549944
79124777.5039425
74507340.3264757
69392905.3853476
61212008.7790173
31572639.6402838
3584840.87548759
41914872.7717867
67974821.0198171
70382286.2429175
66981072.9635283
62580888.9396677
55193836.5265935
30451094.7826284
1866810.05899986
31022897.221392
57949570.6925692
62734741.87705
60504085.7311258
56773797.4121708
50118018.413932
29113498.9463594
959401.862412133
22506431.2803221
48999583.5865194
55912446.2010228
54824901.568016
51740553.3313664
45774419.8333949
27686369.8052405
494336.423327858
15963602.4686853
40958409.2504388
49716831.0740228
49755042.7184058
47308130.6454621
42001276.273
26236023.439591
253462.136349855
11024922.9566698
33726459.8341007
44002340.5476366
45151072.4978005
43344805.1741031
38672955.4230478
24797604.8689971
128043.227571924
7373916.30718268
27252707.1221812
38664058.9619178
40902349.8840158
39748454.2692472
35693252.3541623
23389631.9188379
63334.5469618514
4749125.31645187
21518208.3820298
33630008.4195572
36922931.3164881
36438509.6428792
32990622.5217753
22019008.5129393
30633.0184456335
2931192.13395602
16521990.267539
28856652.0615164
33146482.8474841
33350461.9608067
30510499.136186
20688393.9060894
14532.938020812
1728462.61662641
12268012.1175748
24327575.97567
29523474.955236
30432197.4727412
28207981.2406775
19401363.4809812
6789.44761373595
973116.71583649
8753448.36444054
20053190.4592906
26020173.2499679
27641725.8155991
26045099.9460838
18163320.9100266
3133.46535808826
523827.709285948
5958706.20346728
16071329.0504239
22619063.9276138
24945915.0723851
23989564.7136594
16978131.682855
1432.41517107684
270543.438636853
3839818.34492162
12443212.3063635
19320194.2002038
22320082.8848549
22013955.2911973
15845520.0334684
650.565502767068
134721.71071077
2323999.65709427
9244263.69584588
16142649.8279662
19748325.8492921
20095167.9734875
14759692.7686491
294.927385953236
65084.7838198886
1309835.89228881
6544342.40089003
13124868.3131232
17224509.3630258
18214683.7719101
13711164.9182607
134.388884170664
30691.8578892715
684000.585818111
4386104.53927847
10322213.3370081
14753796.1937921
16359146.0121412
12691350.5263594
62.0093513749297
14204.1589942417
335294.753850459
2766100.61421938
7800244.97407956
12354364.7263618
14520970.683974
11695096.6059754
29.0535698950012
6480.68667574329
155741.27959654
1632352.08097996
5623000.95709013
10058620.5378611
12699701.9562191
10719940.6010106
13.7459539316325
2921.11721097822
69292.3896856702
896699.782714122
3837543.6658554
7912456.77206462
10903857.4171985
9762661.66037644
6.49865477438876
1301.54511189617
29837.129934368
456576.684945827
2459883.00478142
5970944.89937957
9152825.19931038
8817092.32785541
3.04080992992908
574.012152605137
12542.3145368795
215190.893188636
1468659.29225056
4289040.0789656
7477112.52968216
7876155.32848097
1.40161719148171
251.473952450325
5176.60751224247
94350.9669426596
809620.226808459
2908702.7422639
5915012.72666616
6937418.81994637
0.637142508710296
110.103098501298
2104.58393169865
39039.6840061245
408755.862472963
1846351.60451914
4504387.64254809
6007292.72952525
0.28845917725011
48.5078897426916
844.994772374988
15478.320070246
187905.079754728
1086998.38565025
3274427.76217434
5104289.136831
0.133568729581385
21.5570460926194
336.199831151272
5958.48181612284
79159.2015297566
588044.793483763
2247590.10543591
4255662.6249199
0.0667241811312367
9.60705286807802
133.477472729174
2242.85830300898
31023.7670370537
289728.483822884
1440480.75779922
3474066.03229697
0.0386350875477816
4.25029379788677
53.3822469623264
829.341120731725
11531.205073805
129569.81922708
856131.429907383
2715180.97991585
0.0270215529974783
1.8525715574242
21.6391217127173
302.724607692119
4133.54177419405
52993.7408486211
472136.110021354
1980209.79405394
0.0222444671217347
0.794568594232
8.84362185848045
110.014488729191
1444.47438329752
20175.9211752438
240872.206000706
1327851.06287525
0.0202887359051247
0.338263054323505
3.59844031525681
40.2843389608089
495.553764316981
7300.44401992037
113663.807710034
818894.294782304
0.0194986802896397
0.146880652077747
1.44488868278496
14.957495659637
168.218479912898
2550.22221130703
49970.0921258876
466758.921120009
0.0191865639637984
0.0690497332392712
0.573256893164664
5.58294819825069
57.183446882444
868.353171072021
20753.13666569
247204.29642504
0.0190666548961984
0.0383343408047834
0.228896760316314
2.06753215218378
19.6913909323264
290.257944401519
8257.45677886729
122342.012037862
0.0190219688801996
0.0264784706167901
0.0967621922416697
0.757025062951696
6.84741648979921
96.1423580503705
3179.60331101162
57044.616799111
0.0190058265728166
0.0219612606851045
0.0475773977847322
0.27837341990391
2.37160074539412
31.9651337521176
1191.84128191336
25332.4724265498
0.0190001689782322
0.0202633270455875
0.0297164879027111
0.108326157898188
0.814336626266648
10.7310166794365
436.402386891211
10822.3112719247
0.018998235618213
0.0196382268148931
0.0233328452548317
0.0496526409580479
0.28124263275744
3.60052183390761
156.825920625988
4482.69001158183
0.0189975798942914
0.0194142777121109
0.0210644473722022
0.0298300485034804
0.10349841028381
1.19518867564318
55.7856932829794
1809.20108752393
0.0189973440880191
0.0193362031057443
0.0202384539696037
0.0231792563712845
0.046240038956478
0.395766376707105
19.830791166644
714.070899305404
0.0189972338134255
0.019309551189695
0.0199112554877318
0.0209391607922955
0.0281182660716378
0.136888825094892
7.0455632908993
276.49619413091
0.0189971464246376
0.0193014374844166
0.0197825951453101
0.0201883489329281
0.0224063296216976
0.0555217534316702
2.47936356080531
105.549122007207
0.0189970513193465
0.0192984846538838
0.0197320912473743
0.0199450426164138
0.0206167286615625
0.0306583375089014
0.861329124127133
40.0315461515168
0.0189969386999998
0.0192971883528419
0.0197053436015124
0.0198676681677837
0.0200652837016086
0.0231664986248698
0.30022639936305
15.1813309337541
0.0189968107191943
0.0192955195685772
0.0196896572136863
0.0198549214409757
0.019910203486139
0.0209508865051421
0.111317678806716
5.74377787586336
0.0189966729069461
0.0192933904449087
0.0196745008556409
0.0198515696639529
0.0198681948772591
0.0203276627693542
0.0498489959118717
2.1526244486386
0.0189965298627233
0.0192918001060612
0.0196628585394157
0.0198466619797627
0.0198569674039256
0.0201722682462642
0.0305440716692635
0.79916407464887
0.0189963862287475
0.0192903099569875
0.0196561339872327
0.0198417037141333
0.019854649632573
0.0201364389928341
0.0245719165575433
0.299564207098915
0.0189962463102761
0.0192889454402877
0.0196512728701974
0.019840316137147
0.0198570760283528
0.0201310275568797
0.0225167305860301
0.120084127841342
0.0189961141063839
0.0192880212025011
0.0196451153948469
0.0198379443552405
0.0198609676672801
0.0201384329307835
0.0215604801603471
0.0576167140593629
0.0189959941932708
0.0192877314975006
0.019638364124311
0.0198326350841174
0.0198636263688221
0.0201538081173666
0.0210483582665916
0.0367418099170228
0.0189958930389137
0.0192879862107779
0.0196337820270559
0.019830176321834
0.0198681811254056
0.0201704511662631
0.0209181192873848
0.0297852311566696
0.0189958187452958
0.0192890118137847
0.0196295011432637
0.0198266645577742
0.0198738909256552
0.0201901340209395
0.0209649802769689
0.026835250835316
0.0189957828409543
0.0192908272086914
0.0196254049132767
0.0198185262998119
0.0198766479095064
0.0202582055980768
0.0211029506565783
0.0252497163714896
0.0189958010769339
0.0192935471963247
0.0196207788395237
0.0197954547680774
0.0198732585912493
0.0204039644608017
0.0214534195851078
0.0251659877244223
0.0189958942180512
0.0192975432334938
0.0196188762190772
0.01977648235878
0.0198742908829511
0.0206222253698571
0.0219651409314293
0.0265295251890213
0.0189960922642865
0.0193028360776236
0.0196204818134032
0.0197651793963952
0.0198661964425987
0.0207360922011634
0.0223467575287519
0.0279876277271906
0.0189964366949856
0.0193096175649299
0.0196257911141464
0.0197607560011199
0.0198637900338351
0.0206357929333207
0.0224511527451724
0.028968518000498
0.0189969877830734
0.0193177419227075
0.019633989839605
0.0197621724127597
0.0198863047575668
0.0204978802016853
0.0224835314391308
0.0295396101197331
0.0189978305737106
0.0193272301742465
0.0196440199525802
0.0197697472154085
0.0199127101791795
0.0204154127227163
0.0225394544087039
0.0297619930019349
0.0189990863258094
0.0193385412829619
0.0196560794656518
0.019779757874333
0.019937524405131
0.0203989441100128
0.0224703375229336
0.0294967479352053
0.0190009406759419
0.0193520630766284
0.0196706228446083
0.0197951700886909
0.0199813674213435
0.0204393655628442
0.0223755763611001
0.0288947366839889
0.0190036917003468
0.0193681396109402
0.0196874725188878
0.0198145281096653
0.0200172500920417
0.0204938224817446
0.0223133907474021
0.0282349189722672
0.0190078097003934
0.0193881908751604
0.0197086550574921
0.0198382369508094
0.020053429906154
0.0205517917760717
0.0223032173865273
0.0277114914855545
0.0190140281544832
0.0194123781262168
0.0197334336686447
0.0198661727053662
0.0200919420083435
0.020609575718941
0.0223314072617262
0.0273711245627381
0.019023300374343
0.01944063103972
0.0197613625967858
0.0198995103530244
0.0201362325560227
0.0206698731525799
0.0223794750647217
0.0271775195532375
0.0190347791976469
0.019471686071183
0.019791667920573
0.0199341159406168
0.0201876758154995
0.020737968731557
0.0224382402280034
0.0270768445958614
0.0190373746128715
0.0194959858011718
0.0198151865657479
0.0199783696434251
0.0202493214915217
0.0208134142669693
0.0225004390751522
0.0270235871566427
0.0190385213481253
0.0194996637230133
0.0198212853817687
0.0200114427484436
0.0202986099587827
0.0208780098144712
0.0225521137907302
0.026987633468979
0.0190404263118603
0.0195004622428901
0.0198210767542064
0.0200365981458988
0.0203366748175731
0.0209302711492213
0.0225907778779039
0.0269628762230064
0.0190424939970256
0.0194964417918353
0.0198143047669568
0.0200560231329626
0.0203713063981381
0.0209802462747257
0.0226260364518745
0.0269592025558206
0.0190444485616542
0.0194938219207992
0.0198112414736745
0.0200766579497813
0.0204083663533261
0.0210349386029043
0.02266639036818
0.0269796751116931
0.0190463461722261
0.0194916808593996
0.0198091727269288
0.0200970079435464
0.0204461154043774
0.0210933583248259
0.0227134787802628
0.027005578002039
0.019048165355891
0.0194903576413064
0.0198095205118616
0.0201116523509477
0.0204811578443833
0.0211536854963248
0.0227677220737211
0.0270121240054503
0.0190499145991904
0.0194898345773099
0.0198118531105154
0.0201265981602707
0.0205168085334638
0.0212163740934914
0.0228275789651876
0.0269995154101137
0.019051595290119
0.0194899627901411
0.0198156089105743
0.0201422743714687
0.0205534807918076
0.0212800324482508
0.0228894588014005
0.0269842968326205
0.0190532056847181
0.0194906965288332
0.0198205387339821
0.0201592343460964
0.0205909432935894
0.0213421824397305
0.0229490223642958
0.0269711226307309
0.0190547473567295
0.0194920164847841
0.0198264815834232
0.0201774703548266
0.020629352315682
0.0214027347665874
0.02300730044155
0.0269597309234628
0.0190562165804721
0.0194938871942402
0.0198332979877787
0.02019678451438
0.0206686875802957
0.0214623727692984
0.0230671160477709
0.0269407811840559
0.0190576085170402
0.0194962632609044
0.0198408963028063
0.0202170675164122
0.0207089104094717
0.0215219113414406
0.0231300522880141
0.0268920409495815
0.019058921155331
0.0194990973816864
0.0198492016517481
0.0202382163398806
0.0207498555490339
0.0215818637981151
0.0231934658385258
0.0268180387371504
0.0190601545995932
0.019502339169374
0.0198581313492822
0.020260075926784
0.0207912227789584
0.0216423069581379
0.0232573947977716
0.0267398432943938
0.0190613095350254
0.0195059306309304
0.0198675851094471
0.0202824501952708
0.0208326938719642
0.021703079475355
0.0233214466784099
0.026665963022668
0.0190623867221736
0.0195098049085682
0.0198774417043237
0.0203051084998957
0.0208739378717927
0.0217637957309831
0.0233852524183576
0.0266062521221169
0.0190633866801322
0.019513886195041
0.0198875579591962
0.0203277885849234
0.0209145732320354
0.0218237084234943
0.0234491299257443
0.026584648478542
0.0190643091879708
0.019518089200845
0.0198977678977373
0.020350198309843
0.0209541450135751
0.0218818526641561
0.0235156361543787
0.0266004299670118
0.0190651527303424
0.0195223189621635
0.0199078826100095
0.020372011559075
0.0209921619229173
0.0219374655726775
0.0235834033392153
0.0266242787808622
0.0190659138807302
0.0195264717549801
0.0199176943823443
0.0203928655488969
0.0210281004187516
0.0219899265099632
0.0236485223417045
0.0266467266249333
0.0190665872052657
0.0195304381951224
0.0199269802777155
0.0204123486629843
0.0210613126445198
0.0220383075775463
0.0237089145896022
0.0266655922270938
0.01906716466159
0.0195340902988014
0.019935465219447
0.0204299367338782
0.0210909678390085
0.0220814315132487
0.0237632046311565
0.0266829783883311
0.0190676310288046
0.019537245591069
0.0199427723788745
0.0204450424064231
0.0211164704604054
0.0221191558996143
0.0238122053241641
0.026704035445172
0.0190679751756648
0.0195399395744979
0.0199491419635958
0.0204584598454103
0.0211399721308352
0.0221562730434499
0.0238658627088193
0.0267494007379767
0.0190682263212073
0.019542362837211
0.0199548851390958
0.0204700221638631
0.0211588241982459
0.0221823149633035
0.0238961645035203
0.0267549844100809
0.0190682235472783
0.0195402784136318
0.0199494568153789
0.0204576997200988
0.0211325625918173
0.0221285973367954
0.0237920068143568
0.0265421655082481
148680866.855243
182298691.111558
200636403.734789
213479324.391738
223136860.134251
230829464.925966
237532699.890637
244125638.088577
250980354.689764
258251660.51364
266088321.061002
274537282.336693
283721538.715703
293768147.813335
304751492.229189
316742282.520372
329835063.324549
344178787.169231
359956947.725637
377412678.520086
396857022.917367
418692373.029638
443458562.52376
471912562.897053
505181400.612335
545086891.907957
595005677.248124
660925231.772568
638555875.759442
274353699.398284
75709024.0944858
92352699.5130074
100763119.87038
106644295.201197
111201668.708784
114930023.886061
118241042.983127
121530571.183788
124983009.79962
128674072.159821
132665967.901606
136991843.079048
141721472.624099
146920788.089254
152626956.390317
158878148.793811
165727760.199332
173259921.528286
181575397.103854
190811993.875505
201147956.414298
212815798.286603
226130029.253344
241536141.30973
259704918.474032
281736716.214099
309721678.54936
347380964.749063
309456325.689904
122891058.854744
69129296.2533301
83506943.0048353
90028955.0679476
94538563.1571657
98188044.9651487
101294093.974454
104130647.758816
106995312.455245
110039824.913613
113323587.76081
116886510.484242
120767003.857086
125033534.88216
129744899.604574
134933084.971782
140633948.425605
146898628.969608
153808502.771186
161458875.637111
169983306.56393
179556510.86137
190407844.332383
202849424.606209
217326593.537434
234515294.697142
255536185.134069
282554019.164628
319341603.612511
259525584.23508
94183852.5218864
67921890.3560241
81362504.0135381
86967898.5750784
90721699.5593643
93866342.2413329
96635381.6192652
99225212.6455132
101883280.7344
104737720.499067
107835119.974454
111201867.914457
114879704.698049
118935832.161583
123423716.723948
128372022.154121
133814935.649675
139801467.186489
146410706.042939
153734254.224878
161901160.016912
171081163.420263
181497500.762889
193454335.992192
207386465.361891
223954806.728038
244258505.715987
270425084.61635
305933831.836133
246344392.48037
86139845.8964959
65516643.264791
78053808.4670044
83053017.7037378
86247743.722794
88973630.8521057
91430065.9747873
93768458.8156425
96203132.0688083
98839320.4059761
101712499.859603
104840267.421195
108264279.603625
112046475.845049
116234520.086095
120854242.877103
125937033.898196
131528163.480935
137701589.970165
144542653.91211
152170971.586735
160744156.080703
170469473.938007
181629044.709745
194625842.892935
210071420.484836
228982387.615979
253313865.087275
286024670.803888
244249310.923206
83688274.4926479
61955406.3621505
73563417.5602844
78159184.4222147
80953054.7746886
83337230.9063637
85510447.7783736
87604655.4016818
89811934.2257222
92217504.0853011
94848597.3858864
97717891.8331773
100863991.70382
104341448.481317
108193010.733711
112442187.710172
117117242.883482
122259184.257699
127935694.811606
134224897.249291
141235174.725309
149109242.89989
158034597.068152
168265902.431582
180166134.635519
194284405.610659
211531214.632561
233636969.538825
263019006.81025
240102491.533208
83127680.930909
57905412.7639249
68600673.5130372
72926904.1383674
75443148.3150634
77554515.8775313
79481033.8424705
81352317.7493001
83344860.8597953
85527863.6537378
87923017.9896845
90540812.8141405
93414425.2195282
96590900.3702507
100109065.145328
103990530.565486
108260558.865583
112955951.585319
118138008.40388
123877652.753246
130272032.058198
137448761.583831
145575257.120413
154878267.958186
165679994.589342
178466057.763112
194037680.442306
213894589.869929
239970125.651351
230980878.80747
83062434.2322683
53789568.4244996
63611384.7841698
67753304.4135116
70081138.096191
71974975.5809081
73689749.5594197
75362798.1952065
77159039.7465143
79135674.8041261
81311006.6298221
83695139.6014519
86314006.9816474
89208097.0083522
92413016.2462115
95948810.7979187
99838019.0341829
104113502.638198
108830492.827257
114053114.153295
119867984.670621
126388468.286439
133763020.204564
142192029.483084
151959172.674978
163490369.423254
177483096.721269
195219505.273197
218224630.34803
218154772.320789
82799178.6547916
49799197.2971417
58808910.5191879
62822499.0437499
65025066.1638202
66744895.0729144
68278683.5352114
69776986.205687
71396042.4763261
73184436.6061226
75158740.4147293
77329862.193676
79715269.8298995
82350126.0917536
85267292.3319431
88485509.3146181
92024896.8244471
95914701.4042312
100204542.918378
104952266.619117
110234889.934899
116152732.367087
122836892.792634
130463640.652865
139281418.751656
149661901.453248
162207459.277366
178002512.840524
198236106.926604
203703089.904516
81910685.3576607
46008132.3051725
54283765.1568983
58204723.2000814
60326734.460467
61907311.80271
63286488.6069558
64631035.9031271
66090909.5934774
67708692.8849233
69500476.3320267
71478764.4146962
73651959.6931415
76050981.8060172
78706298.221119
81635551.0091039
84856729.9503914
88395791.4738279
92297228.0543956
96613139.6451292
101411896.761045
106782049.042502
112839035.530752
119737375.403785
127693932.289978
137031457.291395
148267054.800612
162308616.125781
180071347.68515
188877999.805803
80062054.9628734
42452106.9596483
50065839.3004026
53915614.7482159
55988944.9896794
57458399.4449537
58705498.0400642
59914755.2663564
61231826.8052022
62695321.9193752
64321746.7496642
66125733.1123849
68106599.8185929
70291795.1677048
72709676.475595
75376959.0471468
78309761.348726
81531054.5479617
85080669.1109435
89005468.3899792
93366078.3594774
98240503.6439715
103730153.741279
109970071.264224
117149051.835831
125546086.518376
135602551.767172
148070393.233003
163641605.003529
174330721.08054
77702861.3192242
39151887.7204591
46152042.0336052
49945673.4460502
51993354.0574236
53374703.2172126
54509083.2579697
55599271.9347238
56788267.341815
58112311.1880967
59588915.0351224
61235183.7556003
63041843.5483087
65033304.8137783
67236055.600229
69666034.826781
72337717.085872
75271367.2167759
78502584.3189019
82073465.2585297
86037716.4732354
90463929.0129852
95440988.1421602
101086554.516581
107564602.938008
115115152.303501
124112710.963306
135172427.778812
148802962.905036
160390060.833078
75112456.7682107
36102333.9425628
42524606.3064372
46274661.1462727
48313530.4129251
49625791.2720095
50664221.532452
51649653.8878721
52723777.1730639
53921781.590352
55262508.4521366
56765734.7987993
58414526.4002554
60230368.7541879
62238092.1727695
64452996.1540121
66888110.5366895
69561246.931876
72504165.129313
75754624.5519893
79360154.6988849
83380959.0680262
87894763.0214448
93003737.8493684
98849991.6184735
105638912.094339
113686207.428491
123487698.769626
135399555.727551
147213353.362026
72457457.7087201
33281422.2370494
39164936.5472931
42878762.1064014
44921045.9054489
46180030.8224216
47137152.9261707
48030542.8284258
49001654.1177546
50085747.8866998
51303091.8863279
52676205.8780983
54181810.7689512
55838289.8067994
57669008.8197458
59688755.1619085
61909288.9289368
64346198.1050264
67027757.8793586
69987780.009057
73268280.8004929
76921998.3752598
81016723.7828586
85640855.4097197
90917236.1866768
97020578.7292488
104215043.759121
112892911.801644
123281762.748898
134866406.853014
69840580.1773181
30657058.8409752
36055541.1220791
39734082.6167992
41788252.0691367
43007138.1988854
43895823.9388177
44708554.7573141
45587348.7817486
46568536.1348089
47673717.4564385
48928106.6257114
50303719.8792097
51815410.7399414
53485264.8375231
55327674.8827932
57353286.4894747
59575673.1994665
62019946.1331504
64716323.2317541
67701899.2511315
71022772.36403
74737895.7124949
78923493.8610299
83685282.3375946
89171026.2007433
95599777.5534049
103274475.474234
112313181.817263
123365472.20832
67329822.6226553
28197025.5482746
33178029.516897
36818303.2899565
38889456.6265715
40079204.8976659
40910827.5903128
41653175.4328791
42449344.7116219
43337653.4884702
44340793.1511128
45486514.0326019
46744014.1801535
48124000.7620409
49647458.8629867
51328490.9433358
53176767.8162978
55204040.539831
57432546.235896
59889230.6342922
62606794.0486568
65625432.3487063
68996239.9112848
72784693.5776608
77081301.7686018
82010196.2327006
87751079.586894
94530285.8664698
102372459.246262
112699699.374176
64959757.0684362
25879844.9524968
30514210.0428553
34111252.7058516
36201359.1139294
37371003.7375495
38155642.8152194
38836954.7157466
39559335.9638359
40363945.4791967
41274226.0494144
42320214.3709908
43470311.9247946
44730365.5740003
46120430.1844381
47654403.5479458
49341109.7500878
51190655.1166722
53222666.0402954
55461108.9299326
57934759.5980818
60678570.6490639
63736651.6254075
67165005.7345605
71040655.21456
75467044.9013385
80589669.201427
86569657.2168481
93352756.9872409
102843042.109091
62732549.1345647
23699946.1904773
28047678.6802023
31595032.0723919
33703117.4064563
34859962.5765099
35606555.7500187
36235381.299927
36892090.0927246
37621437.5750928
38447245.8418332
39401519.2439227
40453877.7112647
41604618.8904629
42873012.0602266
44272810.5590367
45812112.0868576
47499544.4938833
49352363.2789776
51391822.9043815
53643194.2093673
56136775.6200792
58910471.7850488
62011953.7586453
65506297.2324152
69478880.6955407
74045573.9128773
79312481.0774552
85160123.116228
93760560.4049904
60628550.2962859
21663096.0029154
25764612.7027207
29253830.3665547
31376225.1995077
32525993.2625851
33242439.1380033
33826629.652303
34425183.06731
35087052.3498726
35836104.0209305
36705948.6569406
37669280.3444467
38720323.5603567
39877652.0865676
41154904.6391582
42559568.9900836
44098951.5974607
45788156.4781834
47645970.8242239
49694535.6332842
51960022.1551664
54474826.1168757
57279312.9290407
60427986.5778772
63990491.8795571
68057155.6325919
72688120.0533548
77711700.8875094
85412107.6375336
58611881.2174622
19777664.0718974
23654083.2457643
27073846.316209
29204294.6374853
30351246.684311
31044487.0878516
31591273.3755125
32138695.6087727
32740293.428175
33419741.8618262
34211873.438238
35094015.5882594
36054100.9100141
37110001.1438612
38275239.508391
39556810.1128317
40960847.8124825
42500506.7963827
44192331.4238556
46055668.8689119
48113035.1280274
50391937.7475535
52926363.9754928
55761470.4955382
58953247.0433136
62570107.8548897
66634269.9060245
70934087.7983965
77754536.75461
56635686.6973272
18047708.1381927
21707212.366861
25042979.4729368
27172803.6008214
28319840.6251514
28995952.6409832
29512001.7410079
30014912.576507
30562936.9768344
31179468.6708472
31900162.5659049
32708138.7074755
33585253.7184451
34548517.2929967
35611313.1605911
36780260.900073
38060467.6747767
39463324.1198611
41003338.1011508
42697364.4780524
44564687.0176765
46628478.0576607
48917189.6839432
51467717.2113663
54324249.8447686
57536513.7469312
61095892.5597758
64761981.385337
70743196.9828461
54651331.3739724
16468871.0359295
19915805.6363244
23150549.3660683
25268865.3487394
26417604.2733945
27081894.1730499
27573355.4418468
28038043.2395573
28538746.7608102
29098665.4862172
29753856.7615381
30493928.3587954
31295422.0905824
32174103.8964382
33143187.8427372
34209042.3975475
35375886.070446
36653518.9952157
38054602.6547305
39593770.5976613
41287453.9137579
43155006.7098378
45220041.3744608
47512225.355369
50065579.1268531
52913999.7026964
56024259.0174215
59137110.2696648
64333044.7851454
52617797.0253101
15031054.8726626
18271556.1321725
21386830.7003169
23481036.4038085
24631837.9864134
25288940.1660493
25761490.1919674
26193968.6730217
26653217.714549
27162516.2646978
27757874.4248469
28435594.3227875
29168278.5660824
29969787.9790111
30853152.9214515
31824616.6969559
32887644.0914946
34050606.5756123
35324494.7768433
36721964.9117944
38256936.2315055
39945426.7323007
41806781.4583669
43864417.1860306
46143621.7149445
48664992.4087431
51376110.7178318
54007382.8396414
58479439.2643048
50502713.4706485
13724685.6244431
16765324.4172599
19742595.8571715
21799138.731088
22951092.1752006
23605080.2915334
24063970.1163788
24470017.5242166
24893348.5123521
25357762.9131249
25898746.6166652
26519037.9734487
27189262.1908378
27920438.5602528
28725430.2727548
29610477.4241405
30578422.7280508
31636361.5142276
32793775.9610327
34061564.9372011
35451442.150795
36976521.2330738
38652399.6491644
40497112.4088395
42528494.201951
44756075.2641174
47112933.9131875
49326176.5132307
53138800.9520759
48277558.8997859
12543081.2703635
15386038.4289349
18208674.7945184
20213990.6719386
21365025.2237125
22019484.2294034
22469588.0657568
22854769.7452315
23247441.8595666
23672482.0310742
24164377.9760389
24731664.4918836
25345347.4540097
26012522.0072586
26745918.9711011
27551881.7197811
28432760.5347688
29394519.595053
30445283.2277464
31594391.5920859
32851628.2684484
34227589.3988754
35734596.4778897
37386075.172254
39193545.4520741
41157434.9145035
43200336.0296804
45051718.0199309
48269118.4952825
45910124.7758907
11478805.6217657
14120381.5868505
16775599.8128087
18717083.9692028
19864313.9077971
20522345.5336854
20968208.0466809
21337887.059305
21704930.5295048
22095889.9017692
22543840.7252058
23062224.2555449
23624841.6218773
24233890.6405832
24901975.0054939
25635619.093866
26436810.3312871
27310520.7975338
28263656.9585184
29304179.8833271
30440190.7874057
31680115.0857342
33033425.8399184
34509625.511261
36114930.1490965
37842387.0950164
39607511.4023011
41146531.8675832
43830307.2802122
43352538.7705039
10516964.949162
12953377.1917523
15433344.1362931
17300358.3388124
18440519.0787227
19104745.1986966
19550625.8866594
19909967.6992547
20256226.9000724
20618185.3955407
21027212.621852
21500653.8381869
22017203.8866826
22573600.8854657
23182221.5655974
23849812.3941613
24578129.8800616
25371288.3961058
26235107.0577321
27176330.5024552
28201600.545608
29317482.6820367
30530988.6818254
31848306.588663
33271243.8240282
34786971.0925405
36306784.094145
37576947.9854027
39784460.1957501
40529146.8085419
9633337.55140803
11868886.6087892
14171227.6542802
15956060.1206567
17085920.3906226
17758531.0724623
18208446.2828606
18562421.8543496
18892593.6606985
19230428.0199742
19605455.2425889
20037912.21313
20512883.4347001
21021757.6490082
21576385.6252683
22183746.421617
22845501.8115384
23565039.0575591
24347212.0634521
25197696.5685023
26121875.688503
27124733.506288
28211170.5540787
29384599.778114
30643210.5738162
31969603.0000497
33273216.6322755
34312666.5800723
36096137.3706458
37443900.148377
8799329.39807897
10849978.1411372
12978058.440508
14676631.9278482
15793362.3480071
16476211.1146653
16933975.660873
17287364.1672976
17606033.4550919
17924437.725716
18270314.3658938
18665826.3527786
19103181.4909461
19569382.0420119
20075156.8802744
20627720.2024531
21228778.5704917
21881119.4415682
22588746.4156196
23356400.3924144
24188386.4822185
25088356.791184
26059416.5870829
27102680.5491438
28213415.6995232
29370779.0675458
30484274.8873237
31326377.4788828
32732761.9443735
34170915.8897404
7987868.17746704
9879334.30607454
11842493.0430613
13454622.9963178
14556118.926041
15250859.7942802
15720130.5274635
16077520.641758
16389195.374885
16692706.5822605
17014224.0303899