/*--------------------------------*- C++ -*----------------------------------*\
  =========                 |
  \\      /  F ield         | OpenFOAM: The Open Source CFD Toolbox
   \\    /   O peration     | Website:  https://openfoam.org
    \\  /    A nd           | Version:  6
     \\/     M anipulation  |
\*---------------------------------------------------------------------------*/
FoamFile
{
    version     2.0;
    format      ascii;
    class       volScalarField;
    location    "0.0052";
    object      h;
}
// * * * * * * * * * * * * * * * * * * * * * * * * * * * * * * * * * * * * * //

dimensions      [0 2 -2 0 0 0 0];

internalField   nonuniform List<scalar> 
18800
(
2629474.41367576
2637430.2298954
2641630.06903509
2643833.25232761
2644900.84738019
2645651.47602187
2646321.8776419
2648342.5523307
2629148.05749271
2637209.44850791
2641437.8440497
2643650.85878711
2644726.32089922
2645478.8781173
2646153.58932714
2648042.86111056
2628758.3947486
2636636.65996662
2640923.79236559
2643168.97687823
2644267.73313861
2645043.51047602
2645863.63623824
2647661.4018277
2628398.35862816
2635719.41657815
2640086.74687165
2642399.86296401
2643544.09374221
2644363.00015476
2645441.15802196
2647173.01187925
2627963.8625852
2634552.73782904
2639016.8468968
2641440.09138873
2642654.9110653
2643541.21108237
2644908.45206693
2646538.87263031
2627339.39494663
2633247.29218447
2637819.73893481
2640388.08701331
2641695.4567214
2642660.60572432
2644267.02567055
2645727.24109534
2626368.1822013
2631886.24758322
2636567.37654724
2639302.13748314
2640718.34218346
2641769.68051971
2643511.512164
2644773.50531501
2625269.08935832
2630531.32889456
2635296.63407741
2638206.23266417
2639742.78625316
2640882.02565108
2642668.67035413
2643782.25334559
2624227.84476905
2629228.11853912
2634022.79220327
2637106.33424273
2638771.77418013
2639999.97683214
2641796.74386175
2642821.37028405
2623366.88452432
2628006.10842553
2632752.16016698
2636001.13509534
2637802.1990595
2639119.98986821
2640926.57172702
2641977.88201833
2622830.21766532
2626882.67030774
2631487.15616304
2634887.05688463
2636829.22455906
2638238.19273808
2640067.53313023
2641367.15000819
2622418.56649962
2625855.2250777
2630231.9965267
2633760.3937178
2635847.8832089
2637350.83622104
2639220.23936369
2640841.03785188
2622010.57493937
2624912.29198666
2628989.57311867
2632618.17092634
2634853.58337968
2636454.55590458
2638382.28024287
2640289.11710512
2621506.6705071
2624027.42752446
2627766.70966679
2631458.66564706
2633842.24087219
2635546.02544243
2637544.06375154
2639644.01628737
2620930.91935861
2623183.75368198
2626564.1775524
2630281.55772746
2632810.31340513
2634621.97226324
2636693.2346177
2638927.32490702
2620374.62931178
2622375.28915534
2625393.47039974
2629088.54742481
2631754.84611002
2633679.22494522
2635826.84161742
2638188.36652542
2619881.35068454
2621618.17657403
2624255.62378153
2627883.42417816
2630673.59992969
2632714.82417525
2634945.24044133
2637439.23216818
2619460.41097225
2620926.67230449
2623177.09154513
2626673.45648676
2629565.29150189
2631726.1133092
2634046.11641892
2636677.268799
2619106.05658277
2620325.67629662
2622161.60852985
2625468.93093685
2628430.03644749
2630710.81858739
2633126.69607544
2635894.55600249
2618809.54392569
2619819.96679248
2621252.8896145
2624285.3015903
2627270.01799533
2629667.3089271
2632183.61164058
2635079.66735328
2618559.1211266
2619403.97529021
2620449.55744539
2623140.08596393
2626090.59736795
2628594.76589538
2631213.5434853
2634217.80276963
2618342.31142422
2619053.97068368
2619796.7989592
2622054.75863986
2624901.66003621
2627493.96777184
2630213.39041071
2633291.50718161
2618138.92557976
2618753.2588814
2619263.88587659
2621049.18377716
2623719.33170792
2626367.46107361
2629180.75076727
2632287.54056776
2617933.10484205
2618483.2335154
2618771.17482993
2620143.87656478
2622566.49187526
2625221.72125162
2628113.93563817
2631216.49507609
2617720.15597169
2618231.47983889
2618300.11309941
2619356.09090916
2621471.38425811
2624066.58025367
2627012.32222884
2630111.65528734
2617552.75727133
2617999.18122279
2617893.12300733
2618699.67653685
2620464.45756488
2622920.55505723
2625876.7344309
2629009.13075695
2617442.70630682
2617803.61693876
2617569.56217764
2618182.16149407
2619573.93941164
2621806.46073919
2624712.73765685
2627933.94988491
2617379.04537859
2617651.78780832
2617338.52858346
2617793.04462605
2618822.32047159
2620760.90251169
2623534.50157248
2626875.13633717
2617336.73760271
2617541.68801623
2617183.69773295
2617509.86872049
2618221.28790556
2619817.53481968
2622377.85606144
2625786.59284871
2617306.6995744
2617460.65921079
2617101.47502598
2617310.10938821
2617770.54925658
2619017.95201465
2621302.94421295
2624659.49743272
2617289.34628496
2617416.34243411
2617065.13286563
2617166.34048094
2617460.76906536
2618379.52808101
2620387.01213419
2623566.99917582
2617281.00411226
2617385.89313872
2617049.45747843
2617062.25999284
2617257.25857586
2617914.54139965
2619660.45940642
2622578.08320091
2617277.64497545
2617365.3352221
2617035.83213608
2616987.34472851
2617121.72599456
2617602.39739764
2619107.32464385
2621719.5619977
2617276.18535265
2617350.14605136
2617018.9456315
2616932.04326628
2617031.44382143
2617406.12170562
2618697.34845872
2620985.69911991
2617275.80789866
2617335.73419174
2616997.97480667
2616897.29234284
2616971.46594625
2617273.83950291
2618389.8291117
2620344.58431216
2617276.15688812
2617321.32086739
2616977.31969837
2616879.70225838
2616932.25668342
2617181.61477579
2618144.48317416
2619753.86724177
2617277.12285891
2617307.06998235
2616960.51875787
2616869.69543618
2616906.46925528
2617112.40698057
2617936.64214596
2619176.76439682
2617278.13504958
2617293.16054851
2616948.0848676
2616863.39431016
2616888.81118714
2617060.06408392
2617761.2910895
2618632.3591499
2617279.04853718
2617279.77439684
2616939.32340661
2616859.4426002
2616876.20428954
2617017.75582433
2617615.7748255
2618202.92005887
2617279.96726014
2617267.11996893
2616933.2466921
2616856.02873438
2616866.93310797
2616984.13879436
2617495.20744197
2617917.44924491
2617280.87820439
2617255.61295857
2616929.10067076
2616852.93210059
2616859.78231635
2616956.15840429
2617394.80651413
2617712.81342604
2617281.81544061
2617245.34269264
2616926.13250335
2616850.06746413
2616852.07029225
2616934.02575834
2617308.80048612
2617553.54691478
2617282.7991763
2617235.5956622
2616923.66679453
2616847.61970275
2616840.97025087
2616915.54203869
2617240.67132709
2617409.6648236
2617283.83753833
2617225.94475744
2616921.19425173
2616843.79082304
2616819.24044686
2616895.02943686
2617186.3624861
2617254.22037192
2617284.9360722
2617216.24643613
2616917.87860719
2616835.44266614
2616789.31906228
2616866.99635583
2617135.55460182
2617067.78495937
2617286.1006618
2617206.59171668
2616912.93018184
2616824.0008231
2616758.40546909
2616831.94929984
2617079.27010822
2616921.36864424
2617287.33738795
2617197.25449908
2616906.10344877
2616811.83253826
2616733.97409482
2616798.88644086
2617021.90664859
2616838.13782901
2617288.6508793
2617188.59978491
2616899.28851946
2616800.80919883
2616719.37384755
2616773.85225273
2616970.03177607
2616784.03030844
2617290.04002765
2617180.84983577
2616894.28172117
2616792.28891647
2616712.95348933
2616756.10899338
2616922.9783294
2616742.2814202
2617291.5030532
2617174.0619624
2616891.66832639
2616786.59435538
2616709.6092884
2616742.85908082
2616880.83760407
2616705.13471475
2617293.03342633
2617167.94384919
2616890.58317888
2616783.15080594
2616707.07621974
2616731.99597976
2616841.75580394
2616669.6625884
2617294.62242002
2617162.16857737
2616890.28797041
2616781.16323852
2616704.91236834
2616722.6919395
2616804.45880335
2616635.95717246
2617296.25872678
2617156.49370338
2616890.40367347
2616780.05387324
2616703.19136959
2616714.24040061
2616767.93771684
2616604.41607021
2617297.92757574
2617150.80151152
2616890.69338362
2616779.67907342
2616701.98434028
2616704.10374952
2616732.90113272
2616574.48713622
2617299.61588616
2617145.0474374
2616891.1599382
2616779.81373044
2616701.38862437
2616689.46970953
2616703.52109125
2616546.30813135
2617301.31059277
2617139.22109253
2616891.72574794
2616780.4709
2616700.82515788
2616674.81197974
2616680.51011455
2616519.26103548
2617302.99823278
2617133.34102998
2616892.29236529
2616781.23406296
2616700.42462609
2616663.49621452
2616662.00798238
2616491.43899791
2617304.66412458
2617127.45471279
2616892.77990852
2616782.22053972
2616700.28590254
2616655.19533123
2616646.26606821
2616461.18399219
2617306.29506225
2617121.59641491
2616893.22973824
2616782.79265415
2616700.35139746
2616647.82519014
2616631.46447917
2616430.25210586
2617307.87633541
2617115.81290046
2616893.64829028
2616783.0016764
2616700.22705625
2616641.91280894
2616616.05259602
2616406.42067448
2617309.39534786
2617110.13620669
2616894.09422542
2616782.74775303
2616699.49251189
2616638.44916092
2616602.02426368
2616387.93294751
2617310.84024065
2617104.60408903
2616894.57827204
2616782.02490363
2616698.5226238
2616634.86947957
2616587.73838897
2616380.63081889
2617312.20201703
2617099.24980703
2616895.12293393
2616780.99463627
2616696.68594591
2616630.89310255
2616573.47825348
2616372.68315838
2617313.47765754
2617094.10206482
2616895.71881341
2616779.85123593
2616694.25556456
2616626.21867169
2616559.22042354
2616366.12910515
2617314.67314963
2617089.18988662
2616896.33577542
2616778.74139014
2616690.93686551
2616620.50657839
2616545.91552361
2616358.32032655
2617315.81035555
2617084.53392648
2616896.93082307
2616777.64446758
2616687.82214523
2616614.04580666
2616534.1101595
2616347.45245862
2617316.9329363
2617080.1502904
2616897.44269818
2616776.54665262
2616684.01541711
2616606.88787021
2616521.59585191
2616332.60043946
2617318.11052835
2617076.04900482
2616897.8564893
2616775.34027566
2616680.83563529
2616599.34236109
2616508.23958327
2616316.61584699
2617319.43699606
2617072.22986187
2616898.13748872
2616773.99867083
2616677.15673438
2616591.6300118
2616493.92279366
2616300.26243745
2617321.00114899
2617068.64719172
2616898.31539883
2616772.53206254
2616673.40543325
2616583.76809114
2616479.006872
2616283.32424768
2617322.79893927
2617065.28103967
2616898.36567543
2616770.92294642
2616669.43098916
2616575.68538216
2616463.63269527
2616265.39574214
2617324.64973892
2617062.03978645
2616898.24771472
2616769.20495843
2616665.2605782
2616567.30442964
2616447.87248247
2616246.29836343
2617326.14339235
2617058.85837363
2616897.96494166
2616767.25915365
2616660.80495587
2616558.56664163
2616431.73117488
2616226.00333465
2617326.89813561
2617055.62839006
2616897.50643274
2616766.31332033
2616656.06463481
2616549.3902085
2616415.15563542
2616204.62223029
2617327.46738784
2617051.96625432
2616896.83475171
2616765.2867486
2616651.16911008
2616539.92387994
2616398.15948313
2616182.29134141
2617327.97611482
2617048.4409506
2616896.28996759
2616764.0949424
2616646.01973746
2616530.10904794
2616380.75882213
2616159.17285731
2617328.44246964
2617045.00727899
2616895.38346383
2616762.28054707
2616640.59014758
2616519.9300681
2616362.97972242
2616135.41604169
2617328.8686097
2617041.65601315
2616894.37621773
2616760.14625556
2616634.8818433
2616509.36536167
2616344.84015049
2616111.16328137
2617329.24905876
2617038.42670033
2616893.1806881
2616757.6128263
2616628.9552659
2616498.4540505
2616326.37925939
2616086.55974462
2617329.59371475
2617035.29682664
2616891.83033093
2616754.56171869
2616622.7908128
2616487.21347745
2616307.66208293
2616061.76237237
2617329.90357327
2617032.26828597
2616890.33246191
2616751.25536111
2616616.36944368
2616475.62545425
2616288.74209548
2616036.77797495
2617330.18280128
2617029.33660431
2616888.69940448
2616747.74202633
2616609.72731314
2616463.72800198
2616269.68033947
2616011.5800363
2617330.43515943
2617026.49904462
2616886.9346489
2616744.03506231
2616602.86368031
2616451.54417092
2616250.55895221
2615986.29493803
2617330.66399496
2617023.75201646
2616885.04597116
2616740.15401787
2616595.80187248
2616439.10512042
2616231.46686771
2615960.99591329
2617330.87238015
2617021.09269882
2616883.04331859
2616736.11305914
2616588.56650263
2616426.45170609
2616212.50773247
2615935.75877721
2617331.06309629
2617018.51879185
2616880.93790503
2616731.9296181
2616581.18742401
2616413.6402112
2616193.78639089
2615910.69933837
2617331.23861821
2617016.02863927
2616878.74199776
2616727.6244525
2616573.69998097
2616400.74366165
2616175.39522816
2615885.88364485
2617331.40117074
2617013.62156248
2616876.46874098
2616723.22137926
2616566.14583728
2616387.85293998
2616157.38648036
2615861.16701136
2617331.5527601
2617011.29843035
2616874.13294259
2616718.74756437
2616558.57283908
2616375.06504045
2616139.82934508
2615836.81919574
2617331.69518716
2617009.06239036
2616871.75222951
2616714.23460262
2616551.03646766
2616362.48622006
2616122.79610252
2615812.98335354
2617331.83001749
2617006.91961748
2616869.34828451
2616709.72021545
2616543.60108687
2616350.23022645
2616106.37687069
2615789.80233343
2617331.95847705
2617004.87992946
2616866.94814279
2616705.25022819
2616536.34099334
2616338.41818185
2616090.68370415
2615767.46052265
2617332.08127122
2617002.95716737
2616864.58565822
2616700.88110914
2616529.34083217
2616327.17420009
2616075.88891866
2615746.3368894
2617332.19837796
2617001.16938619
2616862.30264503
2616696.68241
2616522.6980203
2616316.63741614
2616062.17278551
2615726.66659114
2617332.30887179
2616999.53887905
2616860.14893894
2616692.73813339
2616516.52658428
2616306.96564971
2616049.70713205
2615708.6962963
2617332.41076515
2616998.09212432
2616858.18158506
2616689.14726416
2616510.96149545
2616298.33909328
2616038.689502
2615692.74089596
2617332.50085425
2616996.86065894
2616856.46510627
2616686.02382524
2616506.15947982
2616290.95979471
2616029.32896893
2615679.13315961
2617332.5755306
2616995.88070191
2616855.06827004
2616683.48373144
2616502.2717923
2616285.01666308
2616021.81112698
2615668.19665437
2617332.63071987
2616995.17272622
2616854.03311675
2616681.59937736
2616499.37838886
2616280.58951302
2616016.18918455
2615659.97394075
2617332.66165956
2616994.76215291
2616853.41060572
2616680.47815947
2616497.70671646
2616278.07780824
2616013.1065693
2615655.3876332
2646859.85410264
2643830.43309587
2645047.27701257
2645412.03761389
2645495.08884612
2645550.26651125
2645603.52221255
2645638.52389704
2645649.21933742
2645631.82623336
2645580.10510105
2645498.258339
2645403.57214403
2645300.71075793
2645191.98929938
2645073.02070022
2644941.78983739
2644792.70350719
2644629.78728436
2644454.99312547
2644271.42704618
2644080.64373121
2643882.65081301
2643674.03140693
2643448.10498247
2643185.32801121
2642896.73574576
2642785.34018719
2644050.16599982
2639574.37563587
2646609.97067501
2643656.01356244
2644812.75983897
2645157.56004732
2645232.68427998
2645282.47363508
2645331.36787919
2645362.38087685
2645368.90252047
2645346.77429596
2645289.69074013
2645202.120559
2645100.80687979
2644990.42566993
2644873.26023059
2644744.92085368
2644603.2990762
2644442.73305484
2644267.07210941
2644078.03664458
2643878.39266926
2643669.2593005
2643450.03228152
2643216.41635143
2642960.30698552
2642659.83573516
2642321.16164462
2642127.67558055
2642975.07973583
2637942.18372382
2646133.7796697
2643370.44772701
2644388.95823235
2644658.80820014
2644718.77350774
2644758.87394972
2644799.76046349
2644823.51185126
2644822.38414214
2644791.40817995
2644724.38862049
2644626.1210966
2644512.49951801
2644388.11502408
2644255.24406888
2644109.52198739
2643948.63936682
2643766.79080444
2643567.52711889
2643352.13873889
2643122.78271344
2642879.79001458
2642621.45477487
2642341.89232141
2642030.47737486
2641661.31818347
2641231.08484331
2640886.50242936
2641090.01849688
2636264.12160906
2645514.43555863
2642882.04893165
2643816.36528469
2644019.60356304
2644061.99526608
2644091.48797546
2644123.34451671
2644138.76704155
2644128.64056626
2644086.99981638
2644008.12432485
2643897.01016866
2643768.53812156
2643627.29083273
2643475.5114855
2643308.83687276
2643124.75707413
2642917.27366286
2642689.5913633
2642442.49532296
2642177.4279562
2641893.78701182
2641588.56094105
2641253.97939514
2640876.47685034
2640425.52621189
2639886.16629729
2639358.35756974
2639002.30045465
2634630.427037
2644790.64389379
2642270.49997685
2643195.15913458
2643344.6015533
2643370.53458688
2643390.64701392
2643414.17453048
2643421.71318518
2643402.7683115
2643350.464561
2643259.83780726
2643135.79858957
2642992.42597392
2642834.17704253
2642663.3326206
2642475.52858132
2642268.04660686
2642034.67374734
2641778.27675945
2641499.13324439
2641197.975405
2640873.26506645
2640520.68220422
2640130.56215277
2639686.43345756
2639153.17673283
2638503.83205124
2637792.3769715
2637028.958294
2633060.8871815
2644010.31464202
2641640.33453774
2642576.70290665
2642677.48199692
2642689.04911294
2642701.38444563
2642717.69432247
2642718.10049291
2642690.81391903
2642628.37328389
2642526.57534474
2642390.14504355
2642232.4295576
2642057.79885096
2641868.56583727
2641660.35263817
2641430.25041953
2641171.82270828
2640887.61062758
2640577.40508055
2640241.25763248
2639876.72721951
2639478.23099672
2639034.27571675
2638525.61386753
2637912.69932514
2637156.74715975
2636269.50891947
2635196.86385562
2631538.36512367
2643261.54918957
2641041.60383631
2641974.49656743
2642028.03639174
2642027.19962233
2642033.17619859
2642043.26914344
2642037.2217713
2642002.02865509
2641930.00791719
2641817.61290094
2641669.32666335
2641497.86498211
2641307.50118957
2641100.58835698
2640872.72960967
2640620.83230252
2640338.23365568
2640027.16033326
2639686.93716802
2639316.96520369
2638913.93608567
2638471.05402332
2637975.07016162
2637404.09068766
2636714.30936273
2635855.46206068
2634801.2859452
2633470.55355432
2630044.19438933
2642646.69365327
2640541.88697543
2641388.57545633
2641393.64264159
2641382.28203398
2641383.18302666
2641387.92415435
2641375.99036297
2641333.26916388
2641252.14438292
2641129.6225264
2640969.92572022
2640785.20356176
2640579.64064414
2640355.62474813
2640108.73452837
2639835.70143711
2639529.6358984
2639192.45760385
2638823.04350471
2638420.1695565
2637979.69073003
2637493.64111057
2636947.08036447
2636315.57625572
2635551.20807628
2634592.61800349
2633379.01449955
2631818.09828213
2628564.72463909
2642262.84096332
2640222.11409848
2640814.6545475
2640769.93473195
2640749.84331095
2640746.87114702
2640747.08356354
2640729.74323271
2640679.86577206
2640590.04689766
2640457.79695574
2640287.06003476
2640089.48302056
2639869.1596645
2639628.50858628
2639363.0805319
2639069.436047
2638740.45956713
2638377.76966256
2637979.81093176
2637544.75617901
2637067.65028725
2636539.39462481
2635943.41407271
2635252.82998092
2634415.74182713
2633360.10768991
2631993.48280467
2630218.44066236
2627091.49320027
2642002.76383141
2639987.269266
2640247.30630742
2640152.77025185
2640125.88763907
2640120.21240235
2640116.66831332
2640094.38018468
2640037.71780731
2639939.57559129
2639797.94925613
2639616.49863856
2639406.41824699
2639171.71036615
2638914.81839228
2638631.26237106
2638317.43660231
2637966.0011484
2637578.278292
2637152.29414787
2636685.63792115
2636172.56823735
2635602.88744025
2634958.43684642
2634209.97340151
2633301.74618593
2632151.45725647
2630637.38677912
2628658.57096521
2625619.60838585
2641784.75522929
2639782.75465157
2639680.9126356
2639538.8881628
2639507.29351127
2639500.07466504
2639493.55404962
2639466.78057914
2639403.70805825
2639297.59469495
2639146.9168827
2638955.0549667
2638732.79271629
2638484.0383133
2638211.25403075
2637909.92721606
2637576.29003554
2637202.78048657
2636790.42905857
2636336.85611233
2635839.08535318
2635290.61134341
2634680.16903444
2633988.06369433
2633182.76503067
2632204.80015499
2630962.06247147
2629305.57967396
2627130.24562693
2624146.07203673
2641561.6018459
2639527.05940455
2639110.5349212
2638925.88576909
2638891.60812156
2638884.03485559
2638875.33356595
2638844.55601478
2638775.4582218
2638661.72112559
2638502.30334138
2638300.32236824
2638066.18440678
2637803.70023799
2637515.34492301
2637196.57166879
2636843.45461917
2636448.2126483
2636011.58891269
2635530.81003814
2635002.35143246
2634418.96485658
2633768.34846078
2633029.31651554
2632168.12643688
2631121.71339137
2629788.62792495
2627994.40940834
2625628.09797466
2622669.46762528
2641311.77526406
2639168.0397148
2638532.27329416
2638312.00251875
2638276.88253604
2638270.1846802
2638260.12408948
2638225.8493273
2638151.12852054
2638030.12035615
2637862.27018417
2637650.46133872
2637404.7488573
2637128.84169398
2636825.22179282
2636489.30732179
2636117.01863982
2635700.35906248
2635239.7890636
2634732.15310088
2634173.39495569
2633555.54438834
2632865.29300876
2632080.00753166
2631163.80746574
2630050.16914115
2628628.78339833
2626701.28631195
2624148.54907516
2621189.55854809
2641015.89787157
2638670.65839079
2637943.09694258
2637695.59026493
2637661.50869041
2637656.97144049
2637646.40002911
2637609.16451796
2637529.24712654
2637401.33382753
2637225.36205413
2637004.02232512
2636747.03890874
2636458.01370493
2636139.42976239
2635786.66982715
2635395.50502226
2634957.72729272
2634473.51940597
2633939.35495284
2633350.66246511
2632698.77034853
2631969.39399847
2631138.49518167
2630168.13014509
2628988.45328445
2627480.79455223
2625424.3539248
2622689.20989444
2619706.56225129
2640644.96668607
2638101.97830117
2637340.75962969
2637075.10896619
2637044.11579036
2637043.09363737
2637032.88617249
2636993.25789071
2636908.60065172
2636774.16827161
2636590.3947963
2636359.83230213
2636091.88960482
2635790.05575323
2635456.80919082
2635087.49737557
2634677.7471758
2634219.14398747
2633711.59826874
2633151.22391343
2632532.95044396
2631847.42561729
2631079.4190935
2630203.53053298
2629179.82785167
2627935.28453259
2626343.38211603
2624162.28529485
2621248.55242024
2618223.02927558
2640159.87682353
2637505.11586156
2636723.4213267
2636449.13269692
2636423.49340469
2636427.43043791
2636418.48698064
2636377.06207987
2636288.15771687
2636147.61877655
2635956.37779928
2635716.91624705
2635438.33855676
2635124.0150097
2634776.41358947
2634390.84712543
2633962.80375858
2633483.66780512
2632953.08329962
2632366.81557671
2631719.31136536
2631000.55868497
2630194.41212044
2629274.15312297
2628197.93641472
2626889.69963846
2625215.59974934
2622914.14546054
2619825.55926465
2616739.7640606
2639534.69193773
2636880.10517843
2636089.36027921
2635816.35622297
2635798.53020463
2635808.99490583
2635802.25273492
2635759.63444692
2635667.01713667
2635520.81684933
2635322.46147662
2635074.44404157
2634785.57214683
2634459.09180857
2634097.45424893
2633695.93887182
2633249.90126426
2632750.53079738
2632197.21150458
2631585.37134628
2630908.99052542
2630157.41855425
2629313.62588052
2628349.62097068
2627221.72093925
2625850.97625547
2624096.75191546
2621679.29038004
2618419.69740685
2615257.91998786
2638807.06401266
2636211.31470126
2635436.87888599
2635175.5663355
2635168.16537856
2635186.91054684
2635183.35777264
2635140.11990583
2635044.37106118
2634892.99323844
2634687.8998751
2634431.69256405
2634132.88720093
2633794.60086569
2633419.26090681
2633002.11508158
2632538.39333287
2632019.09690676
2631443.35683089
2630806.27498517
2630101.38142147
2629317.40878158
2628436.4746532
2627429.3611932
2626250.62416675
2624818.57849751
2622986.33577061
2620457.29239154
2617031.00466944
2613778.62485029
2637984.616204
2635470.94401446
2634764.45469254
2634525.60954799
2634531.38621033
2634560.39823057
2634561.04363676
2634517.72387592
2634419.47858495
2634263.45037121
2634052.0236088
2633788.01790474
2633479.66302557
2633129.94302781
2632741.25313033
2632308.81185182
2631827.73121468
2631288.83186599
2630690.99942414
2630029.02114189
2629295.99343985
2628480.05421037
2627562.49979135
2626512.93424261
2625284.22905401
2623792.11747047
2621883.99884681
2619247.88376589
2615659.6891885
2612302.96484966
2637065.26257182
2634646.401565
2634070.88174492
2633865.3814169
2633887.27333329
2633928.67487233
2633934.58600375
2633891.69346659
2633791.64626697
2633631.54118698
2633414.21931314
2633142.83412159
2632825.34019453
2632464.58387548
2632062.91867896
2631615.53699107
2631117.44151016
2630559.28054138
2629939.70251255
2629253.19170327
2628492.42759391
2627644.976002
2626691.3438918
2625600.00705669
2624322.23065756
2622771.32160749
2620789.50716214
2618050.91091479
2614306.02166207
2610831.84198613
2636067.55896807
2633771.02192903
2633355.41023718
2633193.79161928
2633235.00297651
2633290.95669013
2633303.28065341
2633261.30635904
2633160.21333729
2632996.65260951
2632773.91322403
2632495.59650366
2632169.40395144
2631798.03698551
2631383.79661436
2630921.85294701
2630407.10886461
2629830.04934503
2629189.09448485
2628478.43747868
2627690.35774397
2626811.87230254
2625822.73080608
2624690.33227527
2623364.41434943
2621756.01367264
2619702.72053492
2616866.29829361
2612970.4199985
2609366.18426114
2635017.91848744
2632863.69247293
2632617.66020472
2632509.75495569
2632573.87558761
2632646.47798438
2632666.4299919
2632625.86715706
2632524.54008655
2632358.19239926
2632130.5570228
2631845.78820809
2631511.37079596
2631129.85036685
2630703.46365245
2630227.36304984
2629696.36205386
2629100.79212075
2628438.85453099
2627704.46354307
2626889.51558167
2625980.50270662
2624956.449665
2623783.73162645
2622410.63838567
2620746.09235
2618623.57290956
2615694.02234897
2611653.33173977
2607907.11555863
2633925.20602896
2631932.52701484
2631857.47007514
2631812.17592158
2631903.3844319
2631994.48114076
2632023.32801986
2631984.70878303
2631883.99825369
2631715.57791511
2631483.61528747
2631192.90961891
2630850.77729597
2630459.59508351
2630021.52276085
2629531.70005365
2628984.8624244
2628371.19844412
2627688.70076132
2626931.01712798
2626089.67823804
2625150.67543173
2624092.34170527
2622880.08222265
2621460.81951515
2619741.517035
2617552.05621955
2614534.09096608
2610355.19072393
2606455.59479681
2632793.16459037
2630985.07414917
2631074.99604728
2631099.99589312
2631223.18040144
2631334.19915785
2631373.24740801
2631337.19249155
2631237.96223285
2631068.22567539
2630832.55547869
2630536.4687791
2630187.17040424
2629786.8553812
2629337.59330622
2628834.51626612
2628272.29396389
2627640.98359762
2626938.38004906
2626157.87728732
2625290.65772231
2624322.23652834
2623230.28905815
2621979.30489356
2620514.92071952
2618742.29487418
2616488.20677861
2613386.52802843
2609076.38183852
2605012.73878152
2631629.42750449
2630028.4741901
2630271.03495794
2630372.56077229
2630532.5209485
2630664.84284286
2630715.43297025
2630682.69986979
2630585.80000003
2630415.5404111
2630176.84340161
2629875.97001808
2629520.09867605
2629111.21984489
2628651.30226006
2628135.47476015
2627558.35448621
2626909.87969572
2626187.65905962
2625384.84578842
2624492.29162835
2623495.06042294
2622370.20490383
2621081.35393966
2619572.94044468
2617748.46938432
2615432.09348019
2612251.36274465
2607817.21428542
2603580.03583653
2630464.9977462
2629070.15939838
2629447.11310624
2629629.56090967
2629830.40978201
2629985.60152002
2630049.10188386
2630020.61692861
2629926.86295133
2629756.90594696
2629515.93446861
2629210.90710732
2628849.10397597
2628432.27323864
2627962.27610026
2627434.24129513
2626842.74755308
2626177.62757383
2625436.31607317
2624611.73882725
2623694.43469672
2622669.04129241
2621512.0245568
2620186.20785942
2618634.90286087
2616760.11017093
2614383.80727641
2611128.62176546
2606577.91665964
2602159.92934853
2629352.35958905
2628116.56642312
2628605.39240655
2628870.87963465
2629115.95583133
2629295.65205251
2629373.44722035
2629350.31680905
2629260.47423697
2629091.67917788
2628849.25783043
2628540.76194312
2628173.7134716
2627749.58879118
2627270.13313165
2626730.47666559
2626125.17484607
2625443.96915075
2624684.1333046
2623838.37926568
2622896.95092525
2621844.08500139
2620655.69715785
2619293.86071925
2617700.84881074
2615777.30339528
2613343.45155565
2610018.32381174
2605358.59214044
2600756.17900911
2628323.93665886
2627171.70937422
2627748.54846405
2628096.61129157
2628388.43147523
2628594.16810311
2628687.64137259
2628671.14682091
2628585.91565569
2628419.18276909
2628176.21018162
2627864.995724
2627493.43217795
2627062.72080068
2626574.47600027
2626023.82925801
2625405.32876742
2624708.64003888
2623930.88949203
2623064.58915825
2622099.70599079
2621020.10136993
2619801.17772669
2618404.31391515
2616770.82718861
2614800.14272889
2612311.13312942
2608920.47669327
2604159.2061277
2599372.14126749
2627380.85286311
2626236.53070808
2626879.45359972
2627307.12849994
2627647.2699278
2627880.32722021
2627990.83774257
2627982.42063672
2627902.41417079
2627738.69866062
2627496.15248622
2627183.03631835
2626807.73699011
2626371.19743299
2625874.88421763
2625313.92764286
2624682.8850923
2623971.36222235
2623176.35257106
2622290.18238374
2621302.55979522
2620196.99658519
2618948.4193829
2617517.56813134
2615844.88655418
2613828.72059795
2611286.95360138
2607835.07352491
2602979.62986439
2598006.14382857
2626507.93482935
2625310.22332485
2626000.84759092
2626503.16428627
2626892.06269068
2627153.31656281
2627282.16967277
2627283.41211438
2627209.13141258
2627049.46388646
2626808.40384672
2626494.26822467
2626116.07046329
2625674.51342131
2625170.90655929
2624600.37306369
2623957.49552665
2623231.83665474
2622420.27228567
2621514.95723021
2620505.3589835
2619374.66560443
2618097.36558101
2616633.61534165
2614923.066826
2612863.11956376
2610271.00088724
2606762.08789476
2601819.70877057
2596651.21752474
2625680.30096896
2624391.77749312
2625115.27214188
2625685.90024302
2626122.56801575
2626412.33834083
2626560.74472414
2626573.34384212
2626505.16379289
2626350.66870721
2626112.23018851
2625798.03868609
2625417.82327727
2624972.12229536
2624462.05328785
2623882.73171191
2623228.78004642
2622489.73565173
2621662.37260916
2620738.68880665
2619707.92930597
2618552.98442195
2617247.94223261
2615752.4307272
2614005.39093064
2611903.40371841
2609263.34082552
2605701.45671078
2600679.09091242
2595295.68547296
2624876.39281735
2623479.27722518
2624225.36341011
2624857.07399558
2625338.718144
2625656.61717117