/*--------------------------------*- C++ -*----------------------------------*\
  =========                 |
  \\      /  F ield         | OpenFOAM: The Open Source CFD Toolbox
   \\    /   O peration     | Website:  https://openfoam.org
    \\  /    A nd           | Version:  6
     \\/     M anipulation  |
\*---------------------------------------------------------------------------*/
FoamFile
{
    version     2.0;
    format      ascii;
    class       volScalarField;
    location    "0.0052";
    object      k;
}
// * * * * * * * * * * * * * * * * * * * * * * * * * * * * * * * * * * * * * //

dimensions      [0 2 -2 0 0 0 0];

internalField   nonuniform List<scalar> 
18800
(
49.892992388548
133.431058909344
150.312626563108
149.413153986178
145.203749695702
139.205372288258
125.61990905546
44.5757787315987
323.337610830184
660.109018974387
698.522743258502
683.964910942813
663.570386980497
639.11546985646
583.093367542452
241.619749356122
330.338324768604
807.846598809715
889.584698863211
886.495559540724
867.524751858863
840.718736488728
782.166971335022
372.508001455469
281.549407428267
823.710322433465
957.789605482294
972.610391641674
959.580341426884
934.474615009448
876.494744361596
472.195231026367
223.158973843554
784.740014919131
973.669972059697
1009.85468168907
1005.03191989852
983.377794308534
926.145410547602
560.32089612348
168.067285027302
720.113650597906
962.325188512419
1022.06174272362
1026.90355551468
1009.70983743644
953.150842568373
630.171507620421
120.723789805494
643.264241870643
934.40617242326
1019.27402007421
1034.94188854781
1022.98150322564
967.399671439829
677.34835521563
82.6749801147827
561.564747017419
894.963926390908
1006.16478104765
1033.73580305322
1027.73191407899
973.927234119836
708.95038159154
53.7893971952104
479.760142687102
846.668304998492
985.048665634733
1025.59860913313
1026.29699324942
975.35901135453
729.680995491274
33.4475842463764
401.207501602747
791.149480991262
957.111653732212
1011.73808225934
1019.93498586435
973.007973390005
742.600772868067
20.303615202104
328.268202316721
729.617004334425
922.965312767514
992.777731587775
1009.33054814104
967.526826786124
749.774405255581
12.1782919388485
262.391865800278
663.179704798295
882.921328327721
969.008711184083
994.840894608405
959.21916486104
752.457034090628
7.18029057581541
204.282930965234
593.02287524446
837.145013097142
940.521712265805
976.623514446392
948.179298043391
751.44326981732
4.13367791919964
154.252839362231
520.497558822092
785.754204009216
907.283293916631
954.705580782456
934.404313257353
747.256480993189
2.31534321732752
112.425587457848
447.147347045707
728.900337134948
869.187076008339
929.024754402564
917.875309166287
740.213371486691
1.26227617856136
78.7311071277264
374.700422586092
666.847246246189
826.096059238801
899.455748114849
898.555115704252
730.540209571309
0.672483150101971
52.778111306297
305.01702175103
600.07034925237
777.886535136857
865.830934090335
876.349718350927
718.468774440552
0.351834222520834
33.7911334796373
239.998488046698
529.367654106955
724.501420948248
827.960721035947
851.111595814218
704.261687264295
0.181722365155538
20.6512917750487
181.452104900196
455.995433188911
666.019465566068
785.656456288696
822.653249212592
688.148206085506
0.0933036052662688
12.066027431777
130.919264098571
381.75446416074
602.743508054817
738.759973130752
790.760162321238
670.261912989072
0.0481816283955594
6.76441966128619
89.4535536152038
309.003836655661
535.305068129874
687.183703871735
755.202845407822
650.595823684818
0.0255592033790446
3.65914149219248
57.3687323118645
240.457682598847
464.771345940832
630.966135123549
715.761873604221
629.029582067666
0.0144247707028253
1.92178501333592
34.2881532197551
178.827832418594
392.725459397353
570.347354865222
672.259897775421
605.433620057445
0.009056951457098
0.985819869830689
19.2022658076439
126.304027643704
321.275802984499
505.865932577797
624.597566943236
579.737272955636
0.00653308919864377
0.496646716794062
10.1230943917465
84.1456815728849
252.939418429223
438.470319566372
572.812795289437
551.916457089398
0.00538253185595599
0.246771342839226
5.06608758269322
52.4800222366681
190.358026015939
369.616272448527
517.164934613151
521.900884254955
0.00487723549154064
0.121534722225742
2.43178759501749
30.4021173679226
135.88801547678
301.301527269861
458.241069337397
489.504425371524
0.00466428833067118
0.0599199203142877
1.13116591483273
16.2636966258119
91.1838988467106
235.964884352408
397.044785329498
454.480854750726
0.00457958257718831
0.0301897395352717
0.514035350913899
8.03908460963859
56.9085273738838
176.213039678889
335.003602740079
416.709902878705
0.00454877461012249
0.0161320612280669
0.229727886485117
3.71375557553983
32.6523722947424
124.395577603326
273.818984777928
376.381045064018
0.00453890295367098
0.00963006094679617
0.101872147127335
1.62878941141559
17.0403522828669
82.1665947070791
215.258147567729
334.172763655893
0.00453643428564222
0.00669870420248544
0.045621766139219
0.688831202589456
8.0858994717222
50.1838117491341
161.240343145815
291.204966128144
0.00453622269567444
0.00541733559587503
0.021430332890549
0.284040808843172
3.52863934053504
27.9751709514898
113.896931911397
248.182265584113
0.00453650236898459
0.00487774062914422
0.0112739057940932
0.11555745495203
1.44487649220712
14.1003490341434
75.2213127560031
203.632792386477
0.00453677674818744
0.00466048356851063
0.00712580982702867
0.0474038846218596
0.566601075457555
6.43553387637251
46.2228632198493
157.988025230782
0.00453695955215319
0.00457786508171114
0.00548726782061162
0.0205873551399784
0.216325681019908
2.70131753425469
26.2359604396622
114.49656527254
0.00453706599224087
0.00454936455770844
0.00486665174605636
0.0103381452123589
0.0819266400955066
1.06713974179945
13.697831385977
77.2161693857493
0.00453712621055943
0.00454260135496268
0.00464484653760516
0.00654888700405266
0.031954919345556
0.404949441289619
6.60711125018157
48.4032649772629
0.00453715729841992
0.00454592691295154
0.004574390152675
0.00520442359027261
0.0139269448222318
0.150210037785439
2.98391975508032
28.1911801650572
0.00453717327573108
0.00455497122000867
0.00456109731791582
0.00475505049274285
0.00763527402478229
0.0558675454526696
1.28205572869965
15.2781491780097
0.00453718088969597
0.00456592453482316
0.0045711208445161
0.00462249966543171
0.0055291713720946
0.0220571192299065
0.531052867020286
7.7512673427923
0.00453718322395219
0.00457507430772744
0.00459325323839105
0.00460002270737019
0.00486855596588296
0.0103333583241197
0.214434616868308
3.72077742473833
0.0045371819556219
0.0045811205607583
0.00462157177783546
0.00461568690050135
0.00469165544909401
0.00642235648281082
0.0856695614659586
1.70905243189698
0.00453717837739019
0.00458442184049524
0.00464878961227247
0.00464197774801074
0.00466072438718283
0.00517959083907612
0.0349747598762922
0.758598964181897
0.00453717338713333
0.00458596277889604
0.00466569520169573
0.00466357026373972
0.00465997467046104
0.00480973625673974
0.0156435768602419
0.328007638716868
0.00453716710932485
0.00458655071359855
0.0046691813258747
0.00467524466782644
0.00466944330978101
0.00471250481813191
0.00851147161623915
0.139496005384211
0.00453715886630607
0.0045867048238343
0.00466392283276476
0.00467769485915047
0.00467446298714477
0.00469089646539168
0.00597140927208525
0.0593773598876475
0.00453714737088437
0.00458684375553603
0.00465905363275098
0.00467672462605604
0.00467560346595219
0.00468625187723893
0.00510133586302602
0.0262654178436423
0.00453713248253565
0.00458682009501059
0.00465598533757621
0.00467604371046342
0.00467577224812635
0.00469126690639579
0.00482152543170312
0.0129607525935111
0.00453711408458223
0.00458674491105847
0.00465322571541189
0.00467556465401047
0.00467562521385308
0.00469810797787449
0.00474657176997107
0.00777518334147656
0.00453709296645647
0.00458651118773007
0.00465113549805608
0.00467707599738831
0.00467708332155081
0.00470573178011134
0.00475176218412605
0.00583280985443753
0.00453707016582731
0.00458617415304897
0.00464880594930249
0.00467758512585854
0.00467796097608385
0.00471294824860936
0.00480758352548746
0.00516286108228547
0.00453704648409247
0.0045859155371702
0.00464694713155085
0.00467708895823154
0.00467829165195359
0.00471883218890148
0.0048963462015094
0.00499042626864692
0.00453702270215554
0.00458567144528174
0.00464585627862009
0.00467636430667628
0.00467850005538875
0.00472167747241034
0.00496179385253017
0.00499857876561473
0.00453699953922809
0.00458544773535414
0.00464506268624502
0.00467615696086157
0.00467904901468401
0.00472314239206858
0.00496048864828973
0.00506130705107586
0.00453697766257604
0.00458529603047114
0.00464405728457251
0.00467577384095828
0.00467972023015905
0.00472495888543268
0.00491047575508345
0.00517236123758976
0.00453695783272914
0.00458524844136115
0.00464295657642281
0.00467491518047521
0.0046801705864341
0.00472760631044318
0.00485975544995473
0.00535114672244822
0.00453694112665183
0.00458529030925068
0.00464220847208128
0.00467451494406889
0.00468092087085504
0.00473035501551767
0.00484777329596383
0.00549984232105024
0.00453692888638744
0.00458545908222093
0.00464150912159782
0.00467393761759818
0.00468184868219929
0.00473360222526117
0.00485764829931742
0.00550226755868827
0.00453692303082275
0.00458575745593635
0.00464083991565426
0.00467260509813117
0.0046822964962522
0.00474465139149206
0.0048804398555141
0.00542906622221003
0.00453692616934732
0.00458620500936215
0.00464008783533307
0.00466885328768102
0.00468176491825211
0.00476816622943009
0.0049362197954019
0.00547372439675772
0.00453694175640007
0.00458686171650399
0.00463977875848212
0.00466576154275134
0.00468193970072055
0.00480308547289156
0.00501641441415614
0.00569082258869252
0.00453697476577709
0.00458773163913277
0.00464004195600224
0.00466391452476277
0.00468063227608404
0.00482118587986731
0.00507564335248659
0.00590307351152439
0.00453703208416829
0.00458884582456754
0.00464090953981507
0.00466318837522034
0.00468024733695755
0.00480523070767663
0.0050916787818975
0.00603876503301434
0.00453712370991896
0.00459018057404032
0.00464224905465558
0.00466341562447133
0.00468390553910374
0.00478321061386345
0.00509639180447167
0.00611397637146588
0.00453726375314463
0.00459173942820652
0.00464388870068679
0.0046646480328743
0.00468820256791629
0.00476999411918229
0.00510449135193945
0.00614149671161549
0.00453747233586634
0.0045935973786329
0.00464585994098673
0.00466628105152418
0.00469225234336108
0.00476736803771063
0.00509360841441658
0.0061040379480644
0.00453778025605336
0.0045958179903839
0.00464823656816147
0.00466879447442483
0.00469938026499044
0.0047738850448315
0.00507921728693976
0.00602247520846185
0.00453823694693812
0.00459845774801769
0.00465099002346568
0.00467195208553581
0.00470521994124518
0.00478266867683078
0.00506997001859539
0.00593349701495344
0.0045389203669297
0.00460174897097514
0.00465444964993856
0.00467581764622141
0.00471110232940197
0.00479201088766242
0.00506869029655864
0.00586286864714719
0.00453995196579737
0.00460571771731933
0.00465849514271195
0.0046803705594623
0.00471735912349312
0.00480131715015899
0.00507326303001202
0.00581694056775258
0.00454148871925174
0.00461035061733757
0.00466305121313351
0.00468579847267899
0.0047245465478704
0.0048110197422059
0.00508086912356662
0.00579093368033144
0.0045433874972013
0.00461543619606674
0.00466798726567479
0.00469142668126226
0.00473288496135815
0.00482196207189396
0.00509011970710707
0.00577762383218414
0.00454382022128726
0.00461940860364493
0.0046718087440595
0.00469861507359429
0.00474286317349056
0.00483406901897911
0.00509989921477768
0.00577080842530583
0.00454401136703779
0.00462001431890644
0.00467280378933389
0.00470399559622701
0.00475084486637785
0.00484443066596975
0.00510803093411617
0.0057662987891371
0.00454432730690922
0.00462014761478169
0.0046727718445413
0.00470809158948793
0.00475701391593751
0.00485281198266655
0.00511412167687867
0.00576325977986738
0.00454467013736537
0.00461949398967387
0.00467167355435164
0.00471125752409387
0.00476262516432319
0.00486081692856033
0.00511966857551242
0.00576315438924691
0.00454499431773412
0.00461906909523866
0.00467117915329899
0.00471461663664981
0.00476862187046366
0.00486956259902907
0.00512599635760691
0.00576645496457568
0.00454530908432029
0.00461872249387011
0.00467084724612367
0.00471792614017114
0.00477472178715063
0.00487889065043505
0.00513336725988112
0.0057705416290167
0.00454561085671826
0.00461850940104237
0.00467090847024411
0.00472030619774218
0.00478037480282044
0.00488850535463355
0.00514184277106281
0.00577195251605585
0.00454590104579952
0.00461842688375596
0.00467129248191704
0.0047227328936891
0.00478611913626703
0.00489848299324488
0.00515118704244388
0.00577073820286568
0.00454617987846198
0.00461845062145194
0.00467190748993312
0.00472527609024204
0.00479202318609425
0.0049086053065523
0.00516084198873154
0.0057691876959291
0.00454644706085589
0.00461857310868146
0.00467271294055101
0.00472802617033773
0.00479805198199856
0.00491848214837579
0.0051701321637722
0.00576788503243883
0.00454670284679629
0.00461879123491528
0.00467368282430106
0.00473098175687083
0.00480422952559828
0.00492809736452033
0.00517920836817697
0.00576676459495685
0.00454694661813176
0.00461909923319732
0.00467479452829124
0.0047341106630715
0.00481055165971624
0.00493755826513609
0.00518850161157534
0.00576449244221971
0.0045471775722379
0.00461948968057367
0.00467603309639048
0.00473739489314681
0.00481701142994963
0.00494699367179627
0.00519825545691959
0.00575791727072718
0.00454739537358663
0.00461995483231428
0.00467738628441647
0.00474081754879883
0.00482358192472375
0.00495648466705473
0.00520806625607529
0.00574774582026651
0.00454760003663634
0.0046204864414071
0.00467884060255747
0.00474435342212456
0.00483021484799497
0.00496604302604379
0.00521794595002734
0.00573700666715831
0.00454779167199078
0.00462107502113102
0.00468037971579449
0.00474797073685002
0.00483685916629107
0.00497564285892346
0.00522783552767412
0.00572685820753061
0.00454797040221555
0.00462170963797943
0.00468198389759935
0.00475163219707411
0.00484346194978251
0.00498522313699999
0.00523767737596979
0.00571869151193051
0.0045481363092184
0.00462237789736343
0.00468362986772238
0.00475529547217525
0.00484996233580477
0.00499466633181896
0.0052475186910733
0.00571596627619851
0.00454828935203547
0.00462306585687128
0.00468529065405666
0.00475891347961927
0.00485628792462765
0.00500382131076692
0.0052577467438139
0.00571856715697536
0.00454842927580382
0.00462375799588162
0.00468693556992043
0.00476243372410629
0.00486236071263721
0.00501256916618443
0.00526814812789555
0.00572229749006919
0.00454855551069793
0.0046244373661424
0.00468853088145405
0.00476579785533476
0.00486809771384073
0.00502081350564737
0.00527812992607628
0.00572579854383449
0.00454866715676756
0.00462508609910455
0.00469004038864859
0.00476893970319406
0.00487339628209774
0.00502841007382354
0.00528737743908908
0.00572875891185309
0.00454876288486515
0.00462568329367028
0.00469141943952166
0.00477177503488352
0.00487812482548034
0.00503517594807342
0.00529568239676368
0.00573147579966466
0.00454884018121384
0.00462619916884656
0.00469260692716142
0.00477420958808365
0.00488218943636021
0.00504109045448674
0.0053031700463632
0.00573469356012079
0.00454889721228756
0.00462663951989003
0.0046936418427702
0.00477637128339722
0.00488593271661753
0.00504690312378569
0.0053113504242069
0.00574140624858136
0.00454893881451642
0.00462703530377798
0.00469457414266565
0.00477823224894706
0.00488893207381938
0.0050509772828362
0.00531597124069834
0.00574231015152326
0.00454893837925417
0.00462669541023252
0.00469369424659106
0.00477625145799878
0.00488475855590685
0.00504258544761656
0.00530015027357828
0.00571136425215637
94.9479230146355
114.508458662489
123.464542942981
128.998224502317
132.525708304761
134.737494255524
136.239789138681
137.558363721353
138.902552693977
140.349274031096
141.966547727246
143.758806670232
145.765233716704
148.021711077117
150.534989794283
153.304491318534
156.336943981508
159.656475010054
163.298876680354
167.314057368513
171.766474102062
176.737706657689
182.335795165099
188.710924953252
196.090048584106
204.848412329947
215.697844171819
229.6304960234
209.622388376949
85.5302971113833
440.979169646675
510.135188010541
542.839114035208
563.865633026111
578.395702979752
588.847507449322
597.155945212273
605.00635237134
613.09464262087
621.681064639165
630.98905885846
641.063504295481
652.071122095619
664.16633980758
677.399448755565
691.804343730308
707.445145467228
724.459349914519
743.021996445117
763.376952779258
785.837836560312
810.806439969256
838.819092441286
870.626642722571
907.354981389464
950.841810120717
1004.52283984567
1073.5391542393
1003.0784582463
496.22066832475
662.120709414229
756.986972583146
801.639748723533
830.453916032323
850.869718541766
866.065576118242
878.540091741653
890.523578170256
902.947141232167
916.152950002759
930.426130116936
945.848420883253
962.666094536783
981.1009918687
1001.22812248846
1023.10708979298
1046.84096108983
1072.64332894532
1100.77633903316
1131.60821954021
1165.61325957047
1203.40078148357
1245.78529846062
1293.90935846144
1349.48400547066
1415.3016015854
1496.58061773867
1600.88747026581
1482.85473300215
765.328366384883
803.742260136408
913.888013407232
965.749319788864
998.808424677222
1022.3793335312
1040.13306618903
1054.88304347422
1069.18017595298
1084.06022946985
1099.89371252935
1116.99624929919
1135.47176018372
1155.60665946002
1177.65474697541
1201.70366246151
1227.8253984588
1256.14221645769
1286.908274431
1320.43276469281
1357.14691924219
1397.60594407829
1442.52273393231
1492.84886155122
1549.91770631571
1615.71998456894
1693.49278822422
1789.24291210632
1910.84438044078
1803.19399995507
951.943782281831
893.024952385279
1012.63653658095
1070.07585428007
1106.1037886453
1131.64135769492
1150.86523173281
1166.8804438062
1182.47980437211
1198.74046857226
1216.04407488359
1234.73507899348
1254.92279930921
1276.90229716278
1300.94248597715
1327.14311848182
1355.58120598238
1386.3871255539
1419.83417359062
1456.25585240818
1496.10942188428
1539.98163475141
1588.62447178958
1643.03881855886
1704.62330508183
1775.45628615512
1858.89623993279
1961.08628629573
2089.10628240197
2055.7231730972
1101.17163861162
947.85278549491
1073.49698999505
1136.07424213047
1174.82404227984
1201.91594627303
1222.12764410595
1238.91580698616
1255.2902102559
1272.34816567733
1290.48571302286
1310.08570870504
1331.24465762491
1354.24479475576
1379.3677400626
1406.72622129238
1436.39893854934
1468.51859551872
1503.36563732235
1541.28525700628
1582.74062253619
1628.3225311153
1678.78616388944
1735.13297076902
1798.75704315854
1871.71736474159
1957.3150104461
2061.46229863375
2190.05042878844
2237.23295945509
1227.66801678575
980.581282883239
1110.09535566143
1177.6931029547
1219.2528676022
1247.78638925275
1268.776722006
1286.09838861253
1302.96457108227
1320.49380865521
1339.10609190857
1359.23381541812
1380.94121565572
1404.48877907232
1430.1712589015
1458.11503021705
1488.39916318584
1521.15531492913
1556.66411558997
1595.27487146394
1637.44552512439
1683.75548814476
1734.94301842448
1791.98288668739
1856.22577944392
1929.65164412868
2015.40675587576
2118.9705440477
2244.96436607202
2352.79837046322
1336.47679058011
998.796858418898
1130.69517404777
1203.25788019855
1247.79241651762
1277.76071133877
1299.44260354945
1317.17874876963
1334.37366376386
1352.17907071403
1371.0493268422
1391.47636723912
1413.47307065747
1437.27793443061
1463.19850959531
1491.37533846956
1521.88747964494
1554.8633453668
1590.57940587356
1629.38408870411
1671.72363527475
1718.15706290452
1769.39393867722
1826.36649279469
1890.35955677642
1963.24027823186
2047.94423607852
2149.40742199933
2271.02572871577
2417.37641809111
1429.07147437122
1006.88832755272
1140.22520993841
1217.71692081821
1265.39057688538
1296.83148779907
1319.17981180077
1337.27297933125
1354.69900209268
1372.65749558492
1391.64715386864
1412.22797713805
1434.3451162811
1458.21850120964
1484.16741212825
1512.34700453463
1542.83641084777
1575.75925308325
1611.38494878537
1650.05751492854
1692.20757776947
1738.36835238835
1789.21361338041
1845.62352452668
1908.80376745998
1980.4893865408
2063.37284278431
2161.7873837433
2277.99447699864
2447.44234552149
1505.21475325817
1007.46801862523
1141.74301936148
1224.11058310523
1275.06788183135
1308.04443963519
1331.06953690294
1349.49755213104
1367.09717952225
1385.12957252976
1404.14677483263
1424.78397974301
1446.90708089263
1470.72079327816
1496.55487457413
1524.57954958119
1554.87436642738
1587.55702621422
1622.88787055402
1661.20388113017
1702.91766691824
1748.53339093585
1798.68471860107
1854.19398474105
1916.17977106657
1986.23468037109
2066.78945437738
2161.5459646197
2271.73132951007
2453.94987038971
1563.47333845743
1002.35029120631
1137.22468754398
1224.38775505066
1278.75099677838
1313.34098499205
1337.07585712796
1355.84014083127
1373.58299313121
1391.63953852117
1410.62266889064
1431.24864728511
1453.2986420596
1476.963389101
1502.58199417118
1530.3402966505
1560.31876303245
1592.62833707315
1627.51882129439
1665.3181486984
1706.41945833589
1751.29598587696
1800.5387388191
1854.9088344935
1915.43344812887
1983.55734222346
2061.44055068503
2152.14431462072
2255.95110326132
2443.78119076732
1609.46632155559
992.924136742619
1127.9507127009
1219.84596991146
1277.71891287146
1314.0085078629
1338.50234302363
1357.6217110884
1375.49724392537
1393.54961753701
1412.45811352101
1433.02473627327
1454.94712249331
1478.40017242523
1503.73142869533
1531.14303730772
1560.7170037695
1592.55690835559
1626.9009370672
1664.06640100582
1704.42614419843
1748.42152047926
1796.59951328268
1849.6582096835
1908.53152535581
1974.51425812337
2049.49326453773
2135.89318492551
2233.12181293445
2421.42879031382
1646.9646569959
980.061633996127
1114.77594505593
1211.37775781458
1272.84877138226
1310.92860120663
1336.24306231838
1355.75019314198
1373.76334080186
1391.79993252777
1410.60889911938
1431.08135394072
1452.83965166214
1476.03739307874
1501.02989856844
1528.03648730428
1557.14142680899
1588.4405242299
1622.15955437189
1658.6039676276
1698.12592033023
1741.13457284584
1788.13234479877
1839.7535711473
1896.83879505149
1960.5329773756
2032.45195118851
2114.39748470803
2204.95107294731
2389.96066702503
1678.46409592742
964.239702299203
1098.35693637043
1199.61631384459
1264.75763902593
1304.71985924732
1330.9266716585
1350.86602886883
1369.03450021581
1387.0575433017
1405.75450357374
1426.10744976565
1447.67908431319
1470.59232404577
1495.20990670102
1521.7693563761
1550.35802731929
1581.06372501627
1614.09923830583
1649.75718348158
1688.3689450173
1730.31164251481
1776.04319100135
1826.13426277249
1881.33312634545
1942.63670271905
2011.39533070979
2088.80908898016
2172.66419634387
2351.57118477536
1705.68428124776
945.635322978326
1079.226478213
1185.02495576114
1253.88783661802
1295.82367027388
1323.00286487188
1343.42948183887
1361.7820553408
1379.80582458965
1398.38875248104
1418.60392857771
1439.9775231928
1462.58840136053
1486.80670734925
1512.88931346151
1540.92759638212
1571.00130960881
1603.30986216966
1638.13228121657
1675.7793219216
1716.59656090603
1760.99791531099
1809.49120459489
1862.73411011681
1921.578856924
1987.11825703645
2059.97782244101
2137.17072518878
2307.89858358053
1729.88790442844
924.289126853408
1057.79250269773
1167.95419930232
1240.56027208329
1284.55789030952
1312.79637499204
1333.77516758002
1352.35063425862
1370.40026616194
1388.87643181609
1408.94133084942
1430.11478640413
1452.41469201684
1476.2189239275
1501.80485342819
1529.26894446949
1558.68303262176
1590.2329101824
1624.18344511731
1660.82507686821
1700.47259961906
1743.49678202768
1790.34391903529
1841.58338575951
1897.92708241628
1960.22017685067
2028.54556321904
2099.16715229061
2260.21257032029
1751.86227804492
900.318245327231
1034.37019597717
1148.67698808103
1225.00948614628
1271.15166549425
1300.54195286454
1322.14727855037
1340.99387645493
1359.10453840787
1377.48989175226
1397.39733239347
1418.37628679164
1440.36442397391
1463.74783582885
1488.82539814239
1515.69988412284
1544.43554285415
1575.20445580561
1608.25692232767
1643.86351175617
1682.3092007083
1723.92272628254
1769.09061538475
1818.29666764469
1872.11762900526
1931.16238029116
1995.00706529904
2059.20076481794
2209.52594913358
1771.88215426998
874.062772983688
1009.22311812591
1127.41182168599
1207.4072784855
1255.7687821927
1286.40775590932
1308.72293845308
1327.89825417168
1346.11451162885
1364.43343754561
1384.18189145716
1404.97831140984
1426.660722312
1449.62363359183
1474.18810181235
1500.46462858972
1528.51042308164
1558.48389753633
1590.62051562589
1625.17152638384
1662.39321559155
1702.57361738789
1746.04161439929
1793.19850273003
1844.49167543131
1900.30621703482
1959.75049597632
2017.7092093472
2156.6598227081
1789.81374635517
846.057612450665
982.592706679397
1104.33637205788
1187.87876154256
1238.52378544802
1270.51126569448
1293.62811345389
1313.19936382464
1331.57469024792
1349.86003661794
1369.45449842454
1390.08529453472
1411.47424637297
1434.02342442518
1458.07624041279
1483.7525934845
1511.10343484894
1540.27368311494
1571.48382773001
1604.96643109222
1640.95034523194
1679.68439866081
1721.44228115542
1766.5461091203
1815.32022948487
1867.93928195472
1923.08517102885
1975.04529292749
2102.28364864455
1805.17342753709
816.894418246168
954.719769176086
1079.59980841857
1166.51314795873
1219.49297200195
1252.93041248152
1276.9487815303
1296.99329807669
1315.5897339992
1333.88306248668
1353.33618497359
1373.8218290785
1394.93554039046
1417.08384946042
1440.63210523693
1465.7115857829
1492.36802227388
1520.73315219208
1551.01247024998
1583.4205546957
1618.16018745413
1655.44262319365
1695.48911390392
1738.54609386056
1784.82158118773
1834.29375862217
1885.26096378599
1931.4947837188
2046.9412316068
1817.18857773327
787.081019682869
925.842233124701
1053.32808941974
1143.370940581
1198.72175780379
1233.71159991843
1258.73888586005
1279.34470517785
1298.23269105595
1316.58472947995
1335.91797956367
1356.2811294029
1377.1438424008
1398.91008275798
1421.966207679
1446.45722719554
1472.42496505152
1499.98843469518
1529.33822591057
1560.6716928215
1594.16699920602
1629.99956304848
1668.34124685091
1709.36640032762
1753.17376829925
1799.55951151098
1846.48215496916
1887.28841938237
1991.06681327153
1824.9370328313
756.930089155554
896.174385256688
1025.62723368152
1118.48924694688
1176.22984233501
1212.87536858686
1239.02604555626
1260.292548052
1279.55094660561
1298.02221543099
1317.26691552192
1337.53109262562
1358.17346847451
1379.5823387346
1402.16394704771
1426.0797893005
1451.36938556419
1478.13963980607
1506.56643170592
1536.83070031911
1569.08751737568
1603.47842824519
1640.12880621092
1679.14498324456
1720.52362150405
1763.89357794892
1806.91748361765
1842.61172386335
1935.0016689662
1827.51677293191
726.593099806209
865.890750543644
996.579946859542
1091.88610861995
1152.01461634258
1190.42035948304
1217.81572819354
1239.85421734686
1259.57053125394
1278.2320535353
1297.43027327776
1317.61883328948
1338.07850557058
1359.16062300146
1381.29049485165
1404.64921057364
1429.27589828516
1455.26614338042
1482.78141225266
1511.98708056016
1543.01671708328
1575.98017982659
1610.95905940157
1647.99619117143
1686.99341447079
1727.42713996183
1766.70754624193
1797.61367623999
1879.00771187082
1824.08505979221
696.19981233872
835.106285014117
966.239547060227
1063.56371931643
1126.05326606917
1166.32613876642
1195.09435481713
1218.0284444612
1238.2992276921
1257.23311828218
1276.43841373905
1296.5744426168
1316.89629604888
1337.68821717795
1359.39440000469
1382.2188105881
1406.20242888823
1431.4305144181
1458.05051830426
1486.21314235917
1516.03209565866
1547.58783272375
1580.92098865838
1616.0155122376
1652.68580487812
1690.27069927685
1725.97030752128
1752.41395207411
1823.27864229655
1813.78720619043
665.92048237343
803.841055725523
934.621649067934
1033.50800656934
1098.3054642523
1140.5552498158
1170.83161495884
1194.79734666388
1215.72878947679
1235.02846367082
1254.30645398609
1274.41445637243
1294.65001359949
1315.19423437574
1336.51025989783
1358.82805302129
1382.19306313002
1406.68144970112
1432.42714936694
1459.5671142466
1488.19688404662
1518.36988466488
1550.08872119022
1583.28313101438
1617.68753505569
1652.51794982815
1684.80524159712
1707.10872996652
1767.94953221108
1795.61096930851
635.863686681811
772.003138880056
901.695641345606
1001.68513789367
1068.71653683282
1113.05471105956
1144.98214325709
1170.1278604246
1191.83650512223
1211.60644508444
1231.03525595748
1251.14485495228
1271.3504844801
1291.69548632486
1312.66069760292
1334.5046016251
1357.28017574677
1381.05597317673
1405.95302384499
1432.09548705422
1459.562464975
1488.3828139381
1518.52411391207
1549.86660809205
1582.07221830199
1614.24869189444
1643.29646404927
1661.77519560003
1713.10531290998
1768.12747013382
605.859845999775
739.397725244569
867.376793464349
968.039025454231
1037.21870479899
1083.75705855709
1117.48666783736
1143.97274213942
1166.58628501513
1186.94166217536
1206.61236098486
1226.76297671156
1246.99732391344
1267.19784380863
1287.85781457868
1309.26584129202
1331.48601610819
1354.58108133323
1378.65988281599
1403.83477626511
1430.17019527596
1457.67296412478
1486.27870443082
1515.8229027376
1545.90244157278
1575.53103143737
1601.51510930629
1616.47496397477
1658.78753289241
1729.16691733973
575.363510378871
705.736478390948
831.52198927322
932.490052061893
1003.73058005531
1052.58101577572
1088.27275208226
1116.27124234586
1139.92940818279
1160.99594123852
1181.01312495585
1201.25822178763
1221.57949850922
1241.69723400756
1262.10423800842
1283.11998734468
1304.82387734274
1327.27496450012
1350.57076085624
1374.81284141166
1400.05277394949
1426.27796173886
1453.39518020752
1481.19989691426
1509.23135030203
1536.42303969095
1559.52113731971
1571.25670860075
1605.00738557442
1678.20629515793
543.577540425288
670.645196032965