/*--------------------------------*- C++ -*----------------------------------*\
  =========                 |
  \\      /  F ield         | OpenFOAM: The Open Source CFD Toolbox
   \\    /   O peration     | Website:  https://openfoam.org
    \\  /    A nd           | Version:  6
     \\/     M anipulation  |
\*---------------------------------------------------------------------------*/
FoamFile
{
    version     2.0;
    format      ascii;
    class       volScalarField;
    location    "0.0052";
    object      k_0;
}
// * * * * * * * * * * * * * * * * * * * * * * * * * * * * * * * * * * * * * //

dimensions      [0 2 -2 0 0 0 0];

internalField   nonuniform List<scalar> 
18800
(
49.8929997344618
133.431073211964
150.312637764067
149.413157468817
145.203758017222
139.205376955325
125.619913424469
44.5757791692642
323.337650923104
660.109078593702
698.522785754772
683.964913311507
663.570384866092
639.115444541542
583.0933347126
241.61974874363
330.338361998439
807.846672626013
889.584753700065
886.495569274414
867.524747987575
840.718697067084
782.166926826874
372.507995776873
281.549436228731
823.710400238941
957.789667077559
972.610409732606
959.580342056141
934.474572952473
876.494701995754
472.195221356341
223.158994389811
784.740092232756
973.670037697773
1009.85470743292
1005.03192774421
983.377754781683
926.145374367655
560.32088465533
168.067298608144
720.113725039841
962.325256123666
1022.06177481694
1026.90357168599
1009.70980267877
953.150809290154
630.171559888722
120.72379784527
643.264311883127
934.406239915404
1019.27405709586
1034.9419134778
1022.98147497344
967.399628353243
677.348459016605
82.6749840321043
561.564811280982
894.963991476146
1006.16482155384
1033.73583681578
1027.73189374794
973.92716524505
708.950507397049
53.7893981813784
479.760199880081
846.668365170332
985.048708194011
1025.59865155334
1026.29698238995
975.358915024226
729.681105831494
33.4475849866597
401.207550249985
791.149533609419
957.111696893451
1011.73813296909
1019.93498608914
973.007858842558
742.600839122185
20.303616680025
328.268240769394
729.617046712863
922.965355069766
992.777790072249
1009.33056091794
967.526707733811
749.774420218341
12.1782935643637
262.391892292465
663.179734571942
882.921368462974
969.008776832629
994.840920899993
959.219056298912
752.457008891706
7.18029132039072
204.282944539324
593.02289096937
837.145049964281
940.521784412763
976.623554641747
948.17921283257
751.443217633833
4.13367796396388
154.252841028841
520.497560521237
785.754236897554
907.283371843325
954.705634699144
934.404255767048
747.256426440385
2.31534292529151
112.425580239504
447.147336317461
728.900365458629
869.187158904965
929.024821541708
917.875276922898
740.21333859859
1.26227582010252
78.7310951506357
374.700402326629
666.847270305523
826.096146124022
899.45582774995
898.555104851965
730.540209906923
0.672482847807542
52.7780983796742
305.016995430243
600.070369127265
777.886624702163
865.831025305308
876.349728113842
718.468800465264
0.35183400735012
33.7911221666746
239.998459015222
529.367670932964
724.501511560544
827.960822633924
851.111627278042
704.261724632865
0.181722228357989
20.6512829670476
181.452076208373
455.995447670916
666.019555015514
785.656566744941
822.653304031941
688.148243723305
0.0933035265137285
12.0660210660762
130.919238270907
381.754476671908
602.743594212792
738.760090558505
790.760241803326
670.261949483783
0.0481815877223159
6.76441543914916
89.4535325533482
309.003850119602
535.305148584656
687.183826108991
755.202950238027
650.595868542479
0.0255591851511467
3.65913899566189
57.36871732028
240.457693870003
464.771419812038
630.966259973893
715.762003594756
629.029651337426
0.0144247641954447
1.92178373558703
34.2881437802701
178.827846042053
392.725526679658
570.347480360113
672.260051163286
605.43372954004
0.00905695015159973
0.985819337151249
19.20226121583
126.304040967435
321.275865679861
505.866057574242
624.597740129847
579.737435356267
0.00653308966773265
0.496646571350597
10.1230933262286
84.1456962506184
252.939479459122
438.470443505312
572.812983003861
551.916677507935
0.00538253258728924
0.246771359430984
5.06608833012089
52.480038886374
190.358086041914
369.616395917098
517.165131122813
521.901152952477
0.00487723599736431
0.121534782626578
2.43178888123139
30.4021328893895
135.888076026089
301.301650879993
458.241269892229
489.504717192459
0.00466428858410647
0.0599199749858598
1.13116704282546
16.2637097607636
91.1839568153202
235.965007780118
397.04498781814
454.481139593431
0.00457958269436487
0.0301897754924326
0.514036115446687
8.03909514023358
56.9085802838498
176.213161398842
335.003807052905
416.71015472706
0.00454877465547019
0.0161320807270079
0.229728323771457
3.7137623530349
32.6524167272473
124.395693095042
273.819190946656
376.381246721104
0.00453890296820714
0.00963006996273923
0.101872366749753
1.62879322614241
17.0403842113804
82.1666975372727
215.258353957301
334.172906950758
0.00453643428955652
0.00669870777683324
0.0456218643897796
0.688833146968594
8.08591912074373
50.1838953559902
161.240541132689
291.205053283979
0.00453622269643817
0.00541733680043137
0.0214303724500711
0.284041638808122
3.5286496481203
27.9752319466322
113.897106999143
248.18234479322
0.00453650236823506
0.00487774096876421
0.0112739202212463
0.115557787069315
1.44488100131083
14.1003867340661
75.2214526905806
203.632913843699
0.00453677674657115
0.00466048364483703
0.00712581462467303
0.0474040056258192
0.566602822890567
6.4355531981539
46.2229646834744
157.988202310961
0.00453695954999169
0.00457786509057176
0.00548726929324221
0.0205873911147331
0.216326290998449
2.70132591911301
26.2360266925727
114.496755017148
0.00453706598962757
0.00454936455174804
0.00486665217408061
0.0103381565500648
0.0819268248224284
1.06714291643078
13.6978695590972
77.2163253889852
0.00453712620778053
0.00454260134438232
0.0046448466442685
0.00654889052910751
0.0319549692693091
0.404950495501077
6.60713033287525
48.4033684950155
0.00453715729569294
0.00454592689122354
0.00457439016278356
0.00520442439225637
0.0139269569368623
0.150210345525696
2.9839282028727
28.1912393460136
0.00453717327311551
0.00455497117489265
0.00456109729425105
0.00475505060368845
0.00763527643472734
0.0558676253901847
1.28205911973348
15.27817936515
0.00453718088721385
0.00456592445844197
0.00457112082485481
0.00462249971141458
0.00552917182724496
0.0220571375223842
0.531054132964841
7.75128098480613
0.00453718322159932
0.00457507419064242
0.00459325321355559
0.00460002282076041
0.00486855636963957
0.0103333620843213
0.214435066398182
3.72078285261879
0.00453718195338691
0.00458112039679158
0.00462157171688329
0.00461568707177119
0.00469165564608869
0.00642235709189802
0.0856697172040914
1.70905434271553
0.00453717837529538
0.00458442164862701
0.00464878938950062
0.00464197779481159
0.00466072267302087
0.00517958986749567
0.0349748136996953
0.758599549913648
0.00453717338522029
0.00458596258634877
0.00466569476129437
0.00466357005059092
0.00465997408768665
0.00480973589492042
0.015643595974541
0.328007791269193
0.00453716710760935
0.00458655054104219
0.00466918085299962
0.00467524460054216
0.00466944323137559
0.00471250453115342
0.00851147852227733
0.139496033438064
0.00453715886474726
0.00458670468594929
0.00466392237565987
0.00467769490486161
0.00467446311639467
0.00469089598086242
0.00597141163978545
0.0593773587011296
0.00453714736937488
0.00458684366262223
0.00465905325115082
0.00467672472041381
0.00467560369740209
0.00468625177072858
0.00510133678212161
0.0262654135254645
0.00453713248098214
0.00458682004007741
0.00465598514261334
0.00467604400112132
0.0046757725737444
0.004691266894192
0.00482152583809022
0.0129607501414507
0.00453711408293366
0.00458674487131103
0.00465322564474317
0.00467556486002105
0.00467562547322784
0.00469810797817161
0.00474657196910525
0.00777518251820704
0.00453709296472232
0.00458651114982914
0.00465113549801137
0.00467707656048424
0.00467708369354135
0.00470573175565461
0.00475176188797006
0.00583280949449048
0.00453707016403515
0.00458617411654957
0.00464880597738051
0.00467758543952835
0.00467796126416491
0.00471294833036336
0.00480758158433376
0.00516285986440695
0.00453704648227225
0.00458591550052637
0.00464694718107673
0.00467708917347419
0.00467829192842384
0.00471883250606567
0.0048963435088745
0.00499042413789497
0.00453702270033329
0.00458567140739282
0.00464585632437011
0.00467636448150703
0.00467850035300242
0.0047216780363729
0.0049617943688809
0.00499857799253627
0.00453699953742469
0.00458544769633182
0.00464506270866229
0.00467615707896618
0.00467904929703353
0.00472314302914008
0.0049604930804777
0.00506130945416779
0.00453697766080583
0.00458529599349958
0.00464405732650319
0.00467577394965524
0.00467972053471799
0.00472495946145042
0.00491048151520953
0.00517236669873209
0.00453695783102093
0.00458524840116426
0.0046429566277407
0.0046749153227741
0.00468017094685679
0.00472760684321226
0.00485975936094138
0.00535115442783605
0.00453694112501304
0.00458529027353313
0.00464220849249066
0.00467451505408684
0.00468092122606229
0.00473035545914727
0.00484777664633877
0.00549985256327719
0.00453692888485166
0.00458545904232343
0.0046415091359717
0.00467393772358659
0.00468184905269058
0.00473360246180668
0.00485765187080382
0.00550227868392203
0.0045369230293943
0.00458575741807865
0.00464083991190926
0.00467260501189269
0.00468229673571895
0.00474465169311499
0.00488044024851956
0.00542907500810168
0.00453692616805848
0.00458620496643615
0.00464008781203498
0.00466885320846406
0.00468176518068932
0.00476816688358527
0.00493621783193534
0.00547373035017358
0.00453694175524676
0.0045868616752462
0.00463977872998178
0.00466576147385018
0.00468193987252611
0.00480308613697349
0.00501641315953099
0.0056908257345743
0.00453697476477108
0.0045877315981102
0.00464004192725139
0.00466391443875613
0.00468063232450555
0.00482118650554257
0.00507564166513042
0.0059030718937669
0.00453703208331154
0.00458884578482516
0.00464090950707899
0.00466318826049703
0.00468024746694536
0.00480523152369285
0.00509167623330395
0.00603875980293518
0.00453712370922595
0.00459018053328711
0.0046422490164669
0.00466341551120347
0.0046839058473452
0.00478321167833346
0.00509638845345711
0.006113971112669
0.00453726375263876
0.0045917393832015
0.00464388864923189
0.00466464792259115
0.00468820296203383
0.00476999532899314
0.00510449122659206
0.00614149565271557
0.00453747233557201
0.00459359732745826
0.00464585987375247
0.0046662809477217
0.00469225280551024
0.00476736933307334
0.00509361210611619
0.00610404161714119
0.00453778025602801
0.00459581792946682
0.0046482364789457
0.00466879437277056
0.00469938078264043
0.00477388638992002
0.00507922196755982
0.00602247957845748
0.00453823694729716
0.00459845768071034
0.00465098991882071
0.00467195199535247
0.00470522048982305
0.0047826700513316
0.00506997379561892
0.00593349972638898
0.00453892036807859
0.00460174888789998
0.00465444952804038
0.00467581756325319
0.0047111028796431
0.00479201225733282
0.00506869298382458
0.00586286960429639
0.00453995196847441
0.00460571762279223
0.00465849499381884
0.00468037048885994
0.00471735967708738
0.00480131845090046
0.00507326489194439
0.00581694049965906
0.00454148872413934
0.00461035052436592
0.00466305106912418
0.00468579842653952
0.004724547103638
0.00481102090352754
0.00508087040059357
0.00579093325669745
0.00454338749438855
0.00461543609042669
0.00466798711906915
0.00469142668176297
0.00473288549543362
0.00482196296312766
0.00509012044976075
0.00577762334963537
0.0045438202126488
0.00461940849340964
0.00467180864400448
0.00469861507441742
0.00474286344238364
0.00483406940851312
0.0050998993904102
0.00577080791083024
0.00454401135983999
0.00462001428004601
0.00467280375422811
0.00470399562097076
0.00475084502112659
0.0048444308247868
0.00510803088524107
0.00576629837145832
0.0045443272925081
0.00462014755847094
0.00467277182398233
0.00470809160940165
0.00475701400982392
0.00485281213651653
0.00511412182332106
0.00576325976956237
0.00454467012259704
0.0046194939621229
0.00467167360623618
0.00471125757124022
0.00476262521946947
0.00486081717130732
0.00511966918804262
0.00576315511487755
0.00454499430520308
0.00461906906795183
0.00467117918071978
0.00471461662111694
0.00476862181824532
0.00486956286365443
0.00512599741891269
0.00576645652927764
0.00454530907277853
0.00461872246630978
0.00467084724253903
0.00471792605322231
0.00477472168369138
0.00487889096067255
0.00513336865488705
0.0057705438376459
0.00454561084645725
0.00461850937081471
0.00467090842798602
0.00472030613744446
0.0047803748286048
0.00488850585612971
0.00514184441754204
0.00577195501052425
0.00454590103653823
0.00461842685409866
0.00467129240588922
0.00472273283399671
0.00478611928419651
0.00489848370077458
0.00515118881721362
0.00577074053978206
0.00454617986964393
0.00461845059486762
0.00467190740344854
0.00472527605687578
0.00479202345851834
0.00490860618184653
0.00516084374088988
0.00576918949832434
0.0045464470521486
0.00461857308782223
0.00467271286167718
0.0047280261673991
0.00479805233317863
0.0049184830965437
0.00517013375742004
0.00576788615422829
0.00454670283820327
0.00461879122133456
0.00467368276155833
0.00473098178428803
0.00480422991649776
0.00492809831235558
0.00517920974720346
0.00576676524498167
0.00454694660966236
0.00461909922734535
0.00467479448547975
0.00473411072067483
0.00481055207066372
0.00493755917611623
0.00518850278939339
0.00576449315973457
0.00454717756384786
0.00461948968232521
0.00467603307567541
0.00473739498222061
0.00481701185546568
0.00494699453501173
0.00519825650403543
0.00575791848408801
0.0045473953652439
0.00461995484123659
0.00467738628721682
0.00474081767157914
0.00482358236454058
0.00495648548078266
0.0052080672527242
0.00574774742743675
0.00454760002838577
0.00462048645692765
0.00467884062950692
0.0047443535796654
0.00483021530073532
0.00496604379024876
0.00521794690754718
0.0057370083178332
0.00454779166398136
0.00462107504267033
0.00468037976697528
0.00474797092854756
0.00483685962809123
0.0049756435737121
0.00522783644058624
0.0057268597833188
0.00454797039471235
0.0046217096650817
0.00468198397284531
0.00475163242088002
0.00484346241473511
0.00498522380188895
0.005237678241149
0.00571869296663362
0.00454813630259243
0.00462237792976291
0.00468362996679424
0.00475529572492841
0.00484996279670358
0.00499466694528048
0.00524751949884414
0.00571596747309062
0.0045482893467251
0.00462306589446165
0.0046852907767868
0.00475891375755489
0.00485628837358416
0.00500382186944325
0.00525774746771922
0.005718568211158
0.0045484292722568
0.00462375803861778
0.00468693571631238
0.00476243402357442
0.00486236114176455
0.00501256966403916
0.00526814878363272
0.00572229848269448
0.00454855550930476
0.00462443741391402
0.0046885310515691
0.00476579817348151
0.00486809811712266
0.0050208139375212
0.0052781305127518
0.00572579950914957
0.00454866715780295
0.00462508615162543
0.00469004058215155
0.00476894003794526
0.00487339665682069
0.005028410439091
0.00528737795315103
0.00572875982587106
0.00454876288844013
0.00462568335045109
0.00469141965527476
0.00477177538462975
0.00487812517255453
0.00503517625125578
0.00529568283988218
0.00573147665446415
0.00454884018724384
0.00462619922914534
0.00469260716276588
0.00477420995085582
0.00488218975968524
0.00504109070562756
0.00530317042637553
0.00573469435666939
0.00454889722044404
0.00462663958276736
0.00469364209514576
0.00477637165665277
0.00488593301973865
0.00504690333238261
0.0053113507507195
0.00574140699510476
0.00454893882441327
0.00462703536835043
0.00469457440526681
0.00477823262634586
0.00488893236178171
0.0050509774683963
0.00531597154176996
0.00574231087142766
0.00454893839037929
0.00462669548289884
0.00469369453980744
0.0047762518691511
0.00488475884970357
0.00504258559292631
0.00530015048249618
0.00571136484182001
94.9478550690454
114.508521781504
123.464560919259
128.998231274349
132.525722818375
134.737518502109
136.239818526358
137.558398448517
138.90259070904
140.349315136949
141.966591119301
143.758852854952
145.765294235477
148.021788420339
150.53507377584
153.304566448415
156.337002848849
159.65651853289
163.298910655835
167.314089261668
171.766509750219
176.737749614283
182.335846372429
188.710983724582
196.09011282076
204.848480790251
215.69791662499
229.630573962038
209.62247430853
85.5303629347249
440.978890179058
510.135075568673
542.839046784747
563.86557193403
578.395675418856
588.847513997126
597.155967937302
605.006388916946
613.094683763266
621.681106323238
630.989095643536
641.063539202744
652.071195387129
664.166459970873
677.399583010657
691.804442325251
707.445185094313
724.459334643068
743.021947011391
763.376892980584
785.837784592532
810.806405846457
838.819077515793
870.626642469227
907.354986901831
950.84181464243
1004.52283608561
1073.53914106563
1003.07849966054
496.220852121502
662.120315365562
756.986731349882
801.639615368167
830.453798769351
850.869650711886
866.065555342918
878.540092304729
890.523596108762
902.947162828969
916.152968320854
930.426137192511
945.84842265781
962.666146649523
981.101105250995
1001.2282513105
1023.10716574162
1046.84095245013
1072.64324154994
1100.7762024705
1131.60806671525
1165.61311556608
1203.40065936225
1245.78519901604
1293.90927402966
1349.48392262176
1415.30150905136
1496.58050240627
1600.88732728082
1482.85468044601
765.328557991447
803.74178844204
913.887747811264
965.74914694107
998.808267511576
1022.37923634275
1040.13302455538
1054.88302651564
1069.18018036889
1084.06023818734
1099.8937184439
1116.99624224653
1135.47174622168
1155.60670073053
1177.65485445451
1201.70378180323
1227.82545198564
1256.14216922391
1286.90813475621
1320.43256822371
1357.1467045006
1397.60573952746
1442.52255351425
1492.84870512281
1549.91756428497
1615.71984112958
1693.49262978913
1789.2427226444
1910.84415390719
1803.19387880955
951.94397750516
893.02441591764
1012.63625390884
1070.07565259559
1106.1036021026
1131.64123879917
1150.86517508741
1166.88041483508
1182.47980130523
1198.74047205613
1216.0440792897
1234.73507198145
1254.92278360862
1276.90233543488
1300.94258834211
1327.14322623871
1355.58123792285
1386.38704690512
1419.83399591712
1456.25561562273
1496.10916761361
1539.98139228393
1588.6242543994
1643.038624985
1704.62312479724
1775.45610265573
1858.89603901914
1961.08605120813
2089.10600740691
2055.72297667635
1101.17184054497
947.852189017704
1073.49666324005
1136.074016196
1174.82383417184
1201.91581192183
1222.12757775547
1238.9157715136
1255.29020487089
1272.34817024381
1290.4857236953
1310.08571144274
1331.24464884814
1354.24483423203
1379.36783776894
1406.72631721705
1436.3989513058
1468.51849217741
1503.36543285406
1541.28499428997
1582.740344534
1628.32226638651
1678.78592420352
1735.13275378399
1798.75683809384
1871.71715572026
1957.31478326539
2061.46203734716
2190.0501285781
2237.23270067894
1227.66822879018
980.580630125914
1110.09497185989
1177.69285505569
1219.25264402809
1247.78624450496
1268.77665025418
1286.0983511317
1302.96456714848
1320.49381856605
1339.10611351573
1359.23383368248
1380.94121827904
1404.48882141432
1430.17135196738
1458.11511483686
1488.39915961819
1521.1551927339
1556.66389289275
1595.274593131
1637.44523424681
1683.75521167773
1734.94276625598
1791.98265553815
1856.22555871606
1929.6514191544
2015.40651322887
2118.97026924393
2244.96405540539
2352.79808623973
1336.47701654675
998.796154528048
1130.69474672904
1203.2576135883
1247.79218277092
1277.76056034882
1299.44252986388
1317.17871268555
1334.37366407357
1352.17908860269
1371.04936189812
1391.47640423555
1413.47308668765
1437.27797988525
1463.19859776556
1491.37541258994
1521.88746259501
1554.86320930419
1590.57917161805
1629.38380234455
1671.72333920611
1718.15678200308
1769.39368082459
1826.36625395253
1890.35932680566
1963.24004401608
2047.94398541407
2149.40714221751
2271.02541723483
2417.37609015608
1429.07171878539
1006.88757267171
1140.22476088049
1217.71663956094
1265.39033803651
1296.83133406107
1319.17973908325
1337.27294722763
1354.69900882953
1372.65752299745
1391.64720352521
1412.22803451429
1434.3451463478
1458.21854930769
1484.16749503677
1512.34706908244
1542.83638303297
1575.75910748404
1611.38470836181
1650.05722637563
1692.20728221917
1738.36807239927
1789.21335483845
1845.62328281355
1908.80353307138
1980.48914809152
2063.37258955348
2161.78710505996
2277.99417132647
2447.44199255251
1505.21502179758
1007.46721461264
1141.74256262279
1224.11029264738
1275.06764282078
1308.0442862235
1331.06946774078
1349.4975260556
1367.09719443065
1385.12961031233
1404.14683938373
1424.78405818879
1446.90712487041
1470.72084322327
1496.55495184495
1524.57960554687
1554.87433042495
1587.55687491053
1622.88762846371
1661.20359504732
1702.91737632663
1748.53311598227
1798.68446325946
1854.19374397793
1916.17953615979
1986.23444166114
2066.78920281362
2161.54569160734
2271.73103443919
2453.94950667643
1563.4736382807
1002.34944254573
1137.22423059772
1224.38746168042
1278.75076228024
1313.34083476803
1337.07579394552
1355.84012247125
1373.58301761934
1391.6395870705
1410.62274808166
1431.24874687329
1453.29869942269
1476.96343998984
1502.5820654745
1530.34034505751
1560.3187212781
1592.62818349859
1627.51858138485
1665.31786892561
1706.41917628364
1751.29571927866
1800.53848985942
1854.90859786702
1915.43321591994
1983.55710657068
2061.44030424831
2152.14405089251
2255.95082243711
2443.78082766748
1609.46666459941
992.923256098926
1127.95026469446
1219.84568051477
1277.71868715637
1314.00836357106
1338.50228811049
1357.62170189541
1375.49727914292
1393.54967695984
1412.45820674331
1433.02485666309
1454.94719252385
1478.40022337777
1503.73149377789
1531.14307919047
1560.71695855503
1592.55675560609
1626.9007026747
1664.06613076854
1704.42587364988
1748.42126499913
1796.59927340878
1849.65797995749
1908.53129866177
1974.51402841196
2049.49302617445
2135.89293345464
2233.12154926993
2421.42843720371
1646.96505183857
980.060750560362
1114.77551908257
1211.37747924464
1272.84855831558
1310.92846551706
1336.24301782895
1355.75019441267
1373.76338769599
1391.80000274695
1410.60900553922
1431.0814945022
1452.83973357634
1476.03744331949
1501.02995726953
1528.03652368954
1557.14138027754
1588.44037510089
1622.15932841083
1658.60370966738
1698.12566378283
1741.13433083868
1788.13211637394
1839.75335078939
1896.8385764094
1960.5327561879
2032.45172348826
2114.39724802199
2204.95082888642
2389.96033190133
1678.4645482235
964.238862054831
1098.35654607483
1199.6160525928
1264.75744220964
1304.71973477628
1330.92663960246
1350.86604179948
1369.03455957009
1387.05762413373
1405.75462222546
1426.10760965046
1447.67917733998
1470.5923729566
1495.2099589602
1521.76938826662
1550.35798145907
1581.06358202621
1614.0990233272
1649.75694014116
1688.36870459649
1730.3114160193
1776.04297613145
1826.13405394189
1881.33291808219
1942.63649241493
2011.39511600202
2088.80886928261
2172.66397402808
2351.57087459115
1705.68479414402
945.634583975618
1079.226132931
1185.02471798743
1253.88765942577
1295.82355959588
1323.00284709677
1343.42950756714
1361.78212780111
1379.80591580852
1398.38888234154
1418.60410674726
1439.97762662496
1462.58844851614
1486.80675320922
1512.88934182131
1540.92755301958
1571.00117501477
1603.30966040112
1638.13205449737
1675.77909944272
1716.59635170228
1760.99771589475
1809.49100933028
1862.7339143902
1921.57865968818
1987.11805745013
2059.97762168946
2137.17052655176
2307.89830441924
1729.88847887559
924.288537239987
1057.79220674199
1167.95399055644
1240.56011770717
1284.55779596706
1312.79637316434
1333.7752072162
1352.35072034826
1370.40036755634
1388.87657186913
1408.94152606677
1430.11489963516
1452.41473720914
1476.21896353379
1501.80487916936
1529.26890526245
1558.68290843029
1590.23272355708
1624.18323671977
1660.82487387766
1700.47240926458
1743.49659978613
1790.34373921639
1841.58320458041
1897.92690028498
1960.21999435014
2028.54538317412
2099.16697909531
2260.21232743621
1751.86291279441
900.317815101721
1034.36994931051
1148.67681294063
1225.00935764136
1271.15159000927
1300.54196845506
1322.1473331951
1340.99397658012
1359.10464983133
1377.49004104252
1397.39754318939
1418.37640934887
1440.36446722832
1463.74786942759
1488.82542211338
1515.69985055401
1544.43543082948
1575.20428598394
1608.25673368058
1643.86332955926
1682.3090305598
1723.92256277449
1769.09045274465
1818.2965028868
1872.11746387895
1931.16221669573
1995.00690755454
2059.20061865201
2209.52574692378
1771.88284570319
874.062473608746
1009.22291782743
1127.41168376449
1207.40717876797
1255.76872809042
1286.40779016166
1308.72300921418
1327.89836861834
1346.11463303549
1364.43359521542
1384.18211608985
1404.97844299213
1426.66076389703
1449.62366152618
1474.18812478776
1500.46460196081
1528.51032475223
1558.48374592338
1590.62034790845
1625.17136606381
1662.39306681753
1702.57347401571
1746.04147052656
1793.19835613092
1844.49152907778
1900.30607402698
1959.75036197571
2017.70909159591
2156.65966466884
1789.81448841223
846.057402330071
982.592549916384
1104.33627433257
1187.87869335332
1238.52375523033
1270.51131962515
1293.62820145513
1313.19949274851
1331.57482170414
1349.86020191595
1369.45473485797
1390.08543505973
1411.47428680256
1434.02344713109
1458.07626308474
1483.75257491098
1511.103351513
1540.27355087474
1571.48368188899
1604.9662935233
1640.95021881893
1679.68427666912
1721.44215748989
1766.54598227641
1815.32010353526
1867.93916107999
1923.08506207188
1975.0452047413
2102.28353735522
1805.17421175776
816.894259395418
954.719655122837
1079.59975352063
1166.51311382672
1219.49296801104
1252.93048696497
1276.9488878955
1296.99344149128
1315.58987566767
1333.88323474446
1353.33643089244
1373.82197873617
1394.93558041699
1417.08386746262
1440.63212820827
1465.71157618953
1492.3679550044
1520.73304026013
1551.01234701363
1583.42044055213
1618.16008420867
1655.44252366303
1695.48901172817
1738.54598821769
1784.82147712747
1834.29366128271
1885.26088102781
1931.49472601304
2046.94116868247
1817.18939449237
787.080893094197
925.842163561838
1053.32807974365
1143.37094276499
1198.72178210505
1233.71169575078
1258.73901168033
1279.34486294912
1298.23284315859
1316.58490806743
1335.91823242981
1356.2812886976
1377.14388299606
1398.91009666729
1421.96623145841
1446.45722731262
1472.42491470074
1499.98834378952
1529.33812580021
1560.6716025839
1594.16691975388
1629.99948688684
1668.34116727883
1709.36631716834
1753.17368745517
1799.55943895442
1846.48209941369
1887.28839282063
1991.06679934587
1824.93787497624
756.929999745333
896.174363941238
1025.62727128005
1118.48928735243
1176.22989668332
1212.87548647802
1239.02619183298
1260.29271990986
1279.55110937861
1298.02239971956
1317.26717267616
1337.53126236349
1358.17351079634
1379.58234924822
1402.16397204688
1426.07979966087
1451.36935276783
1478.13957043729
1506.56635504595
1536.83063427895
1569.08746215922
1603.47837586105
1640.12875017463
1679.14492367336
1720.52356502885
1763.8935312538
1806.91745610652
1842.61172887027
1935.00170378037
1827.51763781691
726.593066298806
865.890782016844
996.58003324832
1091.8861887221
1152.01470215329
1190.4205000349
1217.81589574738
1239.85440291798
1259.57070490607
1278.23224291433
1297.43053210524
1317.61901443207
1338.07855091708
1359.16063090773
1381.2905213845
1404.64923151039
1429.27588346616
1455.26609586088
1482.78135917948
1511.98703882315
1543.01668635788
1575.98015174345
1610.95902764124
1647.9961560987
1686.9933833257
1727.4271200204
1766.70754743988
1797.61371301929
1879.00779435064
1824.0859483117
696.199857736454
835.106373678399
966.23968302857
1063.56384005778
1126.05338439031
1166.32630245358
1195.09454417615
1218.02864331396
1238.29941237183
1257.23331226992
1276.43867192398
1296.57463591644
1316.89634581095
1337.68822336618
1359.39442828841
1382.21884223302
1406.20243226006
1431.43048887029
1458.05048877435
1486.21312484801
1516.03208948871
1547.58782926336
1580.92098170814
1616.01550236295
1652.68579981459
1690.27070677629
1725.97033789901
1752.4140206216
1823.27877062508
1813.78811977907
665.920630059936
803.841205246047
934.621834390636
1033.50816825142
1098.30561573927
1140.55543696102
1170.83182626008
1194.79755834479
1215.72898524746
1235.02866209025
1254.30670981035
1274.41466184189
1294.65006923702
1315.1942398491
1336.51029005553
1358.82809530428
1382.19308469942
1406.68144606511
1432.42714316434
1459.56712070346
1488.1969023016
1518.36990593728
1550.08873936447
1583.28314681013
1617.68755659676
1652.51798523094
1684.80530141232
1707.10883007304
1767.94970387858
1795.61190256063
635.86394512519
772.003349849176
901.695874280257
1001.685340115
1068.71672171104
1113.05492179377
1144.98237619234
1170.12808447015
1191.83671193993
1211.60664816267
1231.03550846294
1251.14507146363
1271.35054755778
1291.69549221001
1312.66072966768
1334.50465427476
1357.28021531574
1381.05599121671
1405.95304058834
1432.09551704339
1459.56250732605
1488.38285983261
1518.52415729268
1549.8666497875
1582.07226672416
1614.24875541877
1643.29655332671
1661.77532684348
1713.10552470801
1768.12839797756
605.860196062636
739.397992460437
867.377070378738
968.039267082125
1037.21892282116
1083.7572927626
1117.48692164728
1143.97297806539
1166.58650270308
1186.9418704523
1206.61260985152
1226.76320197601
1246.9973962131
1267.19785135216
1287.85784850003
1309.26590383786
1331.48607327515
1354.58112064297
1378.65992196509
1403.83482917591
1430.17026119333
1457.67303430276
1486.2787728557
1515.82297030465
1545.90251688906
1575.53112303824
1601.51522781775
1616.47512570358
1658.78778092386
1729.16777851231
575.363911539855
705.736790459496
831.522304866006
932.49033121902
1003.73083045364
1052.5812730184
1088.27302558005
1116.27148962987
1139.92963639705
1160.99615534231
1181.01337017154
1201.25845264513
1221.57958216118
1241.69724454744
1262.10427366373
1283.1200591215
1304.82395150282
1327.27502450716
1350.57082171828
1374.81291646201
1400.05286270133
1426.27805562836
1453.39527326123
1481.19999005505
1509.23145224684
1536.42315904294
1559.52128456481
1571.25689991408
1605.00766538286
1678.20704359882
543.577949662106
670.645538952994