/*--------------------------------*- C++ -*----------------------------------*\
  =========                 |
  \\      /  F ield         | OpenFOAM: The Open Source CFD Toolbox
   \\    /   O peration     | Website:  https://openfoam.org
    \\  /    A nd           | Version:  6
     \\/     M anipulation  |
\*---------------------------------------------------------------------------*/
FoamFile
{
    version     2.0;
    format      ascii;
    class       volScalarField;
    location    "0.0052";
    object      nut;
}
// * * * * * * * * * * * * * * * * * * * * * * * * * * * * * * * * * * * * * //

dimensions      [0 2 -1 0 0 0 0];

internalField   nonuniform List<scalar> 
18800
(
3.04988528939162e-06
7.95139344050523e-06
8.8131337976836e-06
8.69541363158124e-06
8.41767189059247e-06
8.05189095082545e-06
7.2601625455263e-06
2.55372885332812e-06
8.83677083774571e-05
0.00019050489034061
0.000222933614041447
0.000232728464451238
0.000234850059616555
0.000233190253926063
0.000225601082766221
0.00015414922012366
0.000127172107446336
0.000324719070259721
0.000414055517654307
0.000453326760705636
0.000470054567812528
0.000475492687791393
0.000472974852612377
0.000430241242883735
0.000140834963121685
0.000411243898208536
0.00056075964049571
0.000634110856109664
0.000669256698453698
0.000684629135004431
0.000685978602959661
0.000688825466885044
0.000139921910639391
0.000466960754399499
0.000678647942903392
0.000789695176760373
0.000846369131571047
0.000873988635025969
0.000878900938538038
0.000914681220510167
0.000129432316743859
0.00049945514612309
0.000774317708175121
0.00092640270737736
0.00100765223139533
0.00104989910699769
0.00105930932762923
0.00110943409257759
0.000112837663262685
0.000512927240710778
0.000850593321716535
0.0010467336191884
0.00115555489347429
0.00121492653981787
0.00123072965324883
0.00127947549594099
9.30739229191713e-05
0.000510338557915301
0.000908691436405039
0.0011515114359977
0.00129081072317949
0.00136989436872333
0.00139462947933804
0.00143272676725253
7.26383551868063e-05
0.000494222782604414
0.000949119924807202
0.00124077930708383
0.00141333547992895
0.00151477055844117
0.00155124661593737
0.00157364126292308
5.39351526035446e-05
0.000466980044569978
0.000972096614522166
0.00131419446579357
0.00152262870689012
0.00164907159262193
0.00170012680437298
0.00170474302958096
3.86712982095144e-05
0.000430916956646106
0.000977777548275758
0.00137121264305841
0.00161796350619021
0.00177205929218739
0.00184054134684533
0.00182741711165262
2.70018021338811e-05
0.000388161459101287
0.000966411131256628
0.00141118230227565
0.00169848139227188
0.00188284236567066
0.00197158543825808
0.00194226212139028
1.8306846526634e-05
0.000340667858960126
0.000938457645948494
0.00143340249400257
0.00176324280868421
0.00198043137224193
0.00209226158228905
0.00204939215162059
1.20104480777837e-05
0.000290409396563666
0.000894685244312699
0.00143717126775412
0.0018112571607482
0.00206376948361265
0.00220153689191914
0.0021486139495787
7.61785287753539e-06
0.000239529604016601
0.00083625306642072
0.00142184373419649
0.00184150499239037
0.00213175104445281
0.00229836659200563
0.00223953836715363
4.68124536067266e-06
0.000190322827005845
0.000764801098609486
0.00138691332660722
0.00185296069534157
0.00218323395242847
0.00238167543937729
0.00232168832734833
2.80060426544836e-06
0.000145040771714533
0.000682521660086625
0.00133213437634131
0.00184462291679303
0.00221704965539881
0.00245033440312277
0.00239456159370689
1.64090713009374e-06
0.000105604627688967
0.000592216224742269
0.0012576907261039
0.00181556110323555
0.00223201372494676
0.00250316490739729
0.00245762348187975
9.48492891317183e-07
7.32737302842355e-05
0.000497295458514207
0.00116442555036721
0.00176498814285858
0.00222693984407431
0.00253894772050389
0.00251024748741654
5.46978304858763e-07
4.84321658527441e-05
0.000401734247359857
0.00105409140153837
0.00169237333903068
0.00220066267965266
0.00255643052392997
0.00255167320965493
3.2115452706932e-07
3.05679089372792e-05
0.000309885703519956
0.000929603936140415
0.00159760888361448
0.00215207794740889
0.00255433660626678
0.00258099815625556
1.99352488870264e-07
1.85148900637817e-05
0.000226139282890186
0.000795158752549391
0.00148124303251258
0.00208021311146984
0.00253138407993061
0.00259722919634192
1.39346695642543e-07
1.08300039395371e-05
0.000154694222841409
0.000656196329937001
0.00134476956388448
0.00198434728951155
0.00248631624117893
0.00259936796977851
1.19055419940754e-07
6.1577468288464e-06
9.89738774014817e-05
0.000519049763717784
0.00119094139351171
0.00186420238273917
0.00241795125690981
0.00258643300543511
1.32214804085841e-07
3.42544037618513e-06
5.92195729389056e-05
0.000390384377225494
0.00102401776868137
0.00172022242522837
0.00232527613984227
0.00255739018061807
1.89688461676326e-07
1.87621626269067e-06
3.33351474894313e-05
0.000276429006423347
0.000849829314417961
0.00155393721639611
0.00220760134156411
0.00251102244466095
3.2943273559582e-07
1.02137241231158e-06
1.78376203299307e-05
0.000182195100958718
0.000675601453707001
0.00136836605671025
0.00206478840940546
0.00244585487435483
6.43908933257741e-07
5.62942662609304e-07
9.18158817127448e-06
0.000110626074003387
0.000509516288852851
0.0011683619321573
0.00189752635440645
0.00236025955912334
1.34668323077534e-06
3.26188541252236e-07
4.59392424051756e-06
6.1646714714976e-05
0.000360011435277347
0.000960770326078599
0.00170759968248256
0.00225274774340303
2.92277498186156e-06
2.12727331648951e-07
2.25685928803877e-06
3.17953538253837e-05
0.000234751647038807
0.000754290143420934
0.00149807730786202
0.00212236206201404
6.42777264919522e-06
1.72063543978311e-07
1.10535138795573e-06
1.54258670888584e-05
0.000139079148906222
0.000558990989225861
0.00127358158324931
0.00196901728246732
1.38665170667318e-05
1.87342156479938e-07
5.57173244120832e-07
7.16694074416244e-06
7.43359546970676e-05
0.000385443050300617
0.00104105447257583
0.00179338256431678
2.77554483399053e-05
2.74931428703419e-07
3.09665923944283e-07
3.23745341059152e-06
3.61213443685572e-05
0.000243107243075656
0.000810512834349106
0.00159568066835444
4.79405491569654e-05
5.03803780878429e-07
2.1428680589024e-07
1.44912767610837e-06
1.62941141939129e-05
0.000138101915903649
0.000594819019729251
0.00137448299977365
6.85530930222455e-05
1.05518788379402e-06
2.11189427512039e-07
6.68073201645636e-07
6.98998868625686e-06
7.03377648532632e-05
0.00040727720566235
0.00113443648988324
8.32818423943477e-05
2.37376259631874e-06
3.06425813472653e-07
3.46732737326588e-07
2.91574988652138e-06
3.25508203263301e-05
0.000257188198026298
0.000888543988830135
9.13140726959301e-05
5.50667605193135e-06
5.92364861847772e-07
2.38776981858037e-07
1.21899876138265e-06
1.40390369839084e-05
0.000148568022606583
0.000655288057781453
9.50164961893477e-05
1.26440800061838e-05
1.34385148157633e-06
2.58059270568589e-07
5.4631767469578e-07
5.78718621612046e-06
7.8624346128162e-05
0.000451752258095635
9.65634948567668e-05
2.69355258403793e-05
3.28518574320369e-06
4.36641322857117e-07
3.05270359367914e-07
2.33854197302513e-06
3.86130823147581e-05
0.000289343747583162
9.71714613481161e-05
4.87108640056573e-05
8.17978222197443e-06
9.84239802631786e-07
2.66450087988659e-07
9.67784063416375e-07
1.79147751303165e-05
0.000171715460428861
9.74000614376107e-05
7.08609711527204e-05
1.94349014436644e-05
2.54030734267166e-06
4.01824236586577e-07
4.55434529571965e-07
7.98263606250117e-06
9.4792544013124e-05
9.74828869932336e-05
8.57791132413671e-05
3.99100874889503e-05
6.84123985648078e-06
8.99500398128371e-07
3.00641794460535e-07
3.47228208007839e-06
4.91850454305138e-05
9.75118595181225e-05
9.32127208792694e-05
6.46881111602771e-05
1.77003529273369e-05
2.43271211069375e-06
3.45931934814125e-07
1.51359429278869e-06
2.42903555287064e-05
9.75216290192644e-05
9.63184225074104e-05
8.33594007201106e-05
3.90576678594634e-05
6.95132845115457e-06
6.70606934160278e-07
7.0199666710508e-07
1.15539038321859e-05
9.75247805710725e-05
9.74949897564609e-05
9.30090301059735e-05
6.56183932019773e-05
1.88832000491602e-05
1.74200175796373e-06
3.9481407999111e-07
5.35209611830432e-06
9.75257212305328e-05
9.79137506975413e-05
9.69497278449157e-05
8.48695097111031e-05
4.24379455149269e-05
5.0501842677184e-06
3.28785448147934e-07
2.45258979762138e-06
9.75259329826668e-05
9.80554857845174e-05
9.83210517522714e-05
9.40474489243686e-05
6.99386690773545e-05
1.44672555445644e-05
4.55492556657384e-07
1.14761233745707e-06
9.75258874243601e-05
9.8102649352687e-05
9.87539816077572e-05
9.75046473132949e-05
8.78106385664248e-05
3.55984064830762e-05
9.44650129602351e-07
5.88242646964301e-07
9.75257356163199e-05
9.81166488029137e-05
9.88763842550792e-05
9.86653597188352e-05
9.54397925646246e-05
6.46061981152883e-05
2.42908773107827e-06
3.77659584556485e-07
9.75255228416893e-05
9.81200236031986e-05
9.88932676880642e-05
9.90293144252014e-05
9.80565524983401e-05
8.57488097344377e-05
6.75390015702681e-06
3.58388303297521e-07
9.75252719894771e-05
9.81185093560981e-05
9.88831602296239e-05
9.91569741696975e-05
9.88819614347675e-05
9.51249502591834e-05
1.8255280907592e-05
5.33089819848431e-07
9.75249992801839e-05
9.81149159506251e-05
9.88602323376986e-05
9.91953007546663e-05
9.91282237935838e-05
9.83423120732176e-05
4.17291993562608e-05
1.11443566974275e-06
9.75247155535687e-05
9.81119380797294e-05
9.88396786275113e-05
9.91987787427091e-05
9.91982951124628e-05
9.93474860553543e-05
7.06414585200124e-05
2.80466979104085e-06
9.75244305486493e-05
9.81090722198075e-05
9.88270776180238e-05
9.91928221302575e-05
9.92187151028262e-05
9.96443201308754e-05
9.01739308549689e-05
7.50663995679754e-06
9.75241530819775e-05
9.8106439643357e-05
9.88177554246655e-05
9.91909609614637e-05
9.92298732603253e-05
9.97329640850486e-05
9.83527860447828e-05
1.91991631645043e-05
9.75238913086956e-05
9.81046490319783e-05
9.88059429776776e-05
9.91865649325839e-05
9.92388962089199e-05
9.97729879802503e-05
0.000100654215856718
4.17899694484039e-05
9.75236544310756e-05
9.81040860709989e-05
9.87930633563577e-05
9.91766829086453e-05
9.92447140713302e-05
9.98086235431548e-05
0.000100984245308116
7.01417337182619e-05
9.75234555417124e-05
9.81045822252689e-05
9.87842772685576e-05
9.91719957810932e-05
9.92537775124048e-05
9.98422652365431e-05
0.000101112515248937
9.13993877615052e-05
9.75233107417336e-05
9.81065875505728e-05
9.87760523462387e-05
9.91650620318711e-05
9.92646012432026e-05
9.98819143753228e-05
0.000101297948887099
0.000101536375465137
9.7523243337753e-05
9.81101218445089e-05
9.87681817388536e-05
9.9149218930555e-05
9.92698161518176e-05
0.000100011557328985
0.000101582128499633
0.000105059996970464
9.75232846455794e-05
9.81154388246025e-05
9.87594510281467e-05
9.91054343832273e-05
9.92642043983618e-05
0.000100283806611899
0.000102219725576839
0.000107150722660545
9.75234765684316e-05
9.81232164795896e-05
9.87558708645849e-05
9.9069171739031e-05
9.92664570491577e-05
0.000100681040782878
0.000103108666526455
0.00010986603920793
9.75238789182407e-05
9.81335235609293e-05
9.87589929210637e-05
9.90473595176345e-05
9.92514443104803e-05
0.000100884263033015
0.000103755224061885
0.000112055347851893
9.75245748117036e-05
9.81467142004718e-05
9.87692007449653e-05
9.90386832160391e-05
9.92471443476996e-05
0.000100704746383018
0.000103926316368208
0.000113295300067195
9.7525684660701e-05
9.81625169433558e-05
9.87849570258694e-05
9.90412372411337e-05
9.928981810966e-05
0.00010045526515435
0.000103968834589303
0.000113889761340927
9.75273784811172e-05
9.81809780141248e-05
9.88042761734194e-05
9.90556239900515e-05
9.93401760308108e-05
0.000100304447351728
0.000104040883695871
0.000114058804677902
9.75298988576867e-05
9.82029750976135e-05
9.88275040167677e-05
9.90748241200656e-05
9.93880244248826e-05
0.000100274926135917
0.000103916491674384
0.000113685002179676
9.75336169023601e-05
9.82292598820498e-05
9.88554988064715e-05
9.91043620224856e-05
9.94714730232128e-05
0.000100350418216806
0.000103767759232581
0.000112972888548567
9.7539127774368e-05
9.8260505493939e-05
9.88879437060448e-05
9.91415086262345e-05
9.9540088882553e-05
0.000100452398085807
0.00010367837536085
0.000112221914580629
9.75473691373662e-05
9.82994434684039e-05
9.89286716385014e-05
9.91869545644237e-05
9.96090945819737e-05
0.000100560769383641
0.000103673278032012
0.000111635677104805
9.75597981142198e-05
9.83463820069467e-05
9.89762791101791e-05
9.92404604503765e-05
9.96824136069337e-05
0.000100668689269733
0.000103729288870606
0.000111260009443071
9.75782722772192e-05
9.84011214896996e-05
9.90298162744487e-05
9.93041333233576e-05
9.97664750879334e-05
0.000100781107129814
0.000103817073476756
0.000111052877042392
9.76009899734316e-05
9.84610446064693e-05
9.90876250467308e-05
9.93700243075527e-05
9.98638152858538e-05
0.000100907625684289
0.000103922549911132
0.000110953988980495
9.7606273488041e-05
9.85076712090033e-05
9.91321306082338e-05
9.9453987424821e-05
9.99800293540171e-05
0.000101047348577975
0.000104033861900588
0.00011091052615629
9.76086061967181e-05
9.85149236798472e-05
9.91438502982799e-05
9.95171487449957e-05
0.00010007323252398
0.000101167011023512
0.00010412674255433
0.000110884780900439
9.76124127316165e-05
9.85165735935132e-05
9.91435387070757e-05
9.95653739451216e-05
0.000100145495513642
0.000101263889066286
0.000104196576918572
0.000110869650860478
9.76165406943699e-05
9.85090114381855e-05
9.91308095501248e-05
9.96027619097502e-05
0.000100211240635422
0.000101356238699461
0.000104260017694846
0.000110880723685259
9.76204476414076e-05
9.85041275174251e-05
9.91251527136917e-05
9.96423256446915e-05
0.000100281317616798
0.000101456808937022
0.000104331838317534
0.000110923552305581
9.76242422870536e-05
9.85001636905839e-05
9.91214162635775e-05
9.96812253612261e-05
0.00010035241509446
0.00010156381028802
0.000104415192991302
0.000110974302640276
9.76278809222151e-05
9.84977615100679e-05
9.91222733262295e-05
9.97091674643096e-05
0.000100418077727075
0.000101673721193935
0.00010451068931481
0.000111001676697477
9.76313806157252e-05
9.84968852748846e-05
9.91268989952806e-05
9.97375950564694e-05
0.00010048465164652
0.000101787545619769
0.000104615854942123
0.000111006786536123
9.7634743973135e-05
9.84972499171582e-05
9.91342086646095e-05
9.97673355659395e-05
0.000100552988653344
0.00010190290340404
0.000104724505724701
0.000111009699493406
9.76379672995635e-05
9.849876652619e-05
9.91437284417995e-05
9.9799466132314e-05
0.00010062275608599
0.000102015461484692
0.000104829086070027
0.000111013753526102
9.76410534254775e-05
9.85014000340276e-05
9.91551604276651e-05
9.98339698216285e-05
0.000100694201344934
0.000102124964113866
0.000104930991234699
0.000111017504851787
9.76439948763063e-05
9.85050837550264e-05
9.91682433243551e-05
9.987047039066e-05
0.000100767254553446
0.00010223258814012
0.000105034810998963
0.000111008067261868
9.76467819564608e-05
9.85097306135335e-05
9.91828015986512e-05
9.99087519466947e-05
0.000100841818179026
0.000102339782001131
0.000105143215025302
0.000110955724249257
9.76494105441327e-05
9.85152494724649e-05
9.91986909394748e-05
9.99486135379498e-05
0.00010091757480989
0.000102447460165841
0.000105251907421973
0.000110869164733941
9.7651880713013e-05
9.85215433676585e-05
9.92157531786518e-05
9.99897604153215e-05
0.000100993967063234
0.000102555747970229
0.000105361199695548
0.000110778259536626
9.76541936914133e-05
9.85285008877188e-05
9.92337973374202e-05
0.000100031822820207
0.000101070408272896
0.000102664343840467
0.000105470488863314
0.000110692517889029
9.76563508368666e-05
9.85359936854032e-05
9.92525930849997e-05
0.000100074368077211
0.000101146291898579
0.000102772554816327
0.000105579119102216
0.000110624749871674
9.76583529985802e-05
9.85438762753733e-05
9.92718687996071e-05
0.000100116906249452
0.000101220922704334
0.000102879061467278
0.000105687556462955
0.000110609143431183
9.76601995398763e-05
9.855198500536e-05
9.92913099041063e-05
0.00010015889337315
0.000101293476244508
0.000102982177712749
0.000105799882552621
0.000110644139280892
9.76618872682571e-05
9.85601377116737e-05
9.93105584919391e-05
0.000100199723637156
0.000101363066912632
0.000103080584522007
0.000105913680493558
0.00011068929602792
9.76634092542166e-05
9.8568135509559e-05
9.93292209483866e-05
0.000100238723910158
0.000101428754045105
0.000103173214554606
0.000106022665475125
0.000110731420600551
9.76647546728064e-05
9.85757687650377e-05
9.93468746806126e-05
0.000100275130801589
0.000101489374387325
0.000103258470226906
0.000106123489299838
0.000110767527884084
9.76659076286252e-05
9.85827923677349e-05
9.93629985719658e-05
0.00010030797286162
0.000101543437285362
0.000103334328230563
0.000106213913575391
0.000110800372444404
9.76668381253028e-05
9.85888576189077e-05
9.93768812168957e-05
0.000100336165868516
0.000101589885846765
0.000103400578229005
0.000106295293929897
0.00011083734861209
9.76675244284644e-05
9.85940321358109e-05
9.9388975909433e-05
0.000100361184474921
0.000101632614777515
0.000103465547320488
0.000106383755292379
0.000110908564736568
9.76680245499925e-05
9.85986734847483e-05
9.9399847183014e-05
0.000100382672748813
0.000101666768523715
0.000103510996881278
0.000106433804545031
0.000110920335207479
9.76680201070807e-05
9.85947048034706e-05
9.9389627868752e-05
0.000100359878956827
0.000101619390236332
0.000103417770092011
0.000106264406349727
0.000110607846051957
5.45705019102904e-06
6.47341986558088e-06
6.83781162510999e-06
7.01542594289896e-06
7.08388315415045e-06
7.07828691126445e-06
7.0327796477626e-06
6.97594603277916e-06
6.91867974313003e-06
6.86467084032663e-06
6.816928173649e-06
6.77501196385321e-06
6.73997216167111e-06
6.71256754284341e-06
6.69224160101588e-06
6.67799697384804e-06
6.66912518651687e-06
6.66547934250719e-06
6.66742631808843e-06
6.67560701476174e-06
6.69090900961315e-06
6.71437796174093e-06
6.74735002828519e-06
6.79164487104206e-06
6.85024615692331e-06
6.92854249031453e-06
7.03741091012895e-06
7.18040925301487e-06
6.19325342571358e-06
2.39978165334207e-06
0.000231169561052157
0.00025360816981348
0.000263198274033713
0.000268321839856563
0.000270757970896049
0.000271528024087237
0.000271424944818442
0.000271067112452066
0.000270674014390145
0.00027032532211788
0.000270101259750042
0.000269991366433297
0.000270020533415495
0.000270217220604784
0.00027058329867444
0.000271109611727837
0.000271789544224382
0.000272629187826795
0.000273645766075863
0.000274862065840154
0.000276307480049225
0.000278018006080682
0.000280040469895059
0.000282438706143494
0.000285309815540926
0.000288812189863222
0.000293217877421506
0.000298587875336944
0.000292625982640668
0.00018033165875992
0.000570761141662552
0.000617584709903466
0.000642419415807738
0.000656544962586419
0.000663605471952891
0.00066643822358513
0.000667094074729558
0.00066706566303506
0.000666833265554799
0.000666588992931064
0.000666564030272148
0.000666710459470629
0.000667063778072934
0.000667697410801546
0.000668636670705645
0.000669876191538875
0.000671407427385921
0.00067324439549711
0.000675427343904319
0.000677997819234521
0.000681004830762459
0.00068450740352363
0.000688581016226554
0.000693325648896938
0.00069888664842222
0.00070548537720385
0.000713413230554897
0.000722284860758539
0.000762534492158366
0.000559708278999023
0.000855984792049009
0.000923855422483042
0.000965188690710196
0.000989681845394272
0.00100220521178678
0.00100759058283707
0.00100932041676274
0.00100981393197917
0.0010098251696773
0.00100967985370785
0.0010097963829664
0.00101007084630205
0.00101053154041805
0.00101129977528677
0.00101243452551073
0.00101393743041791
0.00101580034526601
0.00101803981278186
0.00102071458526222
0.00102387312684509
0.00102756586085481
0.00103185122509673
0.00103680153272231
0.00104250775721679
0.00104909358583236
0.00105671878414475
0.00106545238197628
0.0010741514690456
0.00118791312698689
0.000946806136316587
0.00109551353254435
0.00118237559253441
0.00124084085321274
0.00127669275905089
0.00129538459407557
0.00130377412864444
0.00130688812313339
0.00130809935381124
0.00130846787547872
0.00130847906953882
0.00130876573731502
0.00130915570699087
0.00130966329092099
0.00131045956094703
0.00131164458850455
0.00131322798689765
0.00131520281732067
0.00131758516603586
0.0013204492561897
0.00132384539708725
0.00132781713298708
0.00133241118760656
0.00133768162145297
0.00134368898401553
0.00135050257428357
0.00135815905312481
0.0013663968306368
0.00137328274767688
0.00155717835599687
0.00130403113866925
0.00130510286601286
0.00140987985790296
0.00148619490406185
0.00153445719560575
0.00156009677882021
0.00157201396806682
0.00157688079361878
0.00157905300863365
0.00157994166858074
0.00158022150586504
0.00158076676954218
0.00158132845239037
0.00158190359142414
0.00158271777208532
0.00158391702984509
0.0015855203305623
0.00158752236133782
0.0015899369424608
0.00159285166952207
0.00159631644956923
0.00160036362989347
0.00160502196355765
0.00161031860921889
0.00161627132886466
0.00162287478300724
0.0016300067404285
0.00163701110992063
0.00164120745885394
0.00187615269173371
0.00163176927122145
0.00149448022310627
0.00161671877419693
0.00171166524018325
0.00177341397702685
0.00180682379710457
0.00182284330418565
0.00182987285765376
0.0018332802601368
0.0018348797037132
0.00183556542723729
0.00183648095194063
0.00183729513938524
0.00183798880135077
0.00183884550086254
0.00184006143692606
0.00184166683025507
0.00184365831576495
0.00184604622019246
0.00184892988784169
0.00185235786145691
0.00185634882849978
0.00186090950181057
0.00186603435659996
0.00187169008473621
0.00187777957009445
0.00188400370565101
0.00188926306885092
0.00189018411342528
0.00215692884276657
0.0019353553299847
0.00166916153896385
0.00180883296803639
0.00192322137752752
0.00199952062612595
0.0020415495894053
0.00206228915965931
0.00207192900950665
0.00207687607645308
0.00207940265773524
0.00208065135512948
0.00208206324150174
0.00208322556202859
0.00208410585142179
0.00208504728780023
0.00208630047756684
0.00208790927135785
0.00208987265586812
0.00209219662151327
0.00209499095699546
0.00209830259999921
0.002102135188977
0.00210647054382022
0.00211126626926094
0.00211643201632115
0.00212176433705021
0.00212677555971357
0.00212988755002313
0.00212707462049816
0.00241082816414778
0.0022198539022162
0.00183223980952698
0.00198966675765472
0.00212431926675031
0.00221620909471819
0.00226773045823857
0.00229385143884768
0.00230658990271425
0.00231341718849942
0.00231711787632253
0.00231910962115511
0.00232115895012044
0.00232278120279273
0.00232393231339039
0.00232501555987399
0.0023263404941734
0.00232796744969441
0.00232989836891078
0.00233213438549502
0.00233479470087536
0.0023379248893617
0.00234151288530506
0.00234551357307713
0.00234984458275295
0.00235435414949292
0.00235871890158858
0.00236225622219918
0.00236288299299777
0.00235594396797492
0.00264648675110607
0.00248942411593524
0.00198550015306533
0.00216126959989458
0.00231699650715609
0.00242548801556944
0.00248739892244933
0.0025196076604548
0.00253597834604971
0.00254506877838953
0.00255022716635225
0.00255317004198564
0.00255601569773962
0.00255822942869461
0.00255975369055105
0.00256105176051535
0.0025624970927858
0.00256416987814227
0.00256607591189398
0.0025682112611125
0.00257070376845387
0.00257359825258007
0.00257686685404125
0.00258043609984603
0.00258418141398411
0.00258788304545607
0.00259109448611502
0.00259292655111665
0.0025907754260032
0.00257935848129029
0.00286940856706784
0.00274787358086449
0.00213001040589112
0.00232484081514178
0.00250245159700326
0.00262852444456453
0.00270174189475464
0.00274078991681794
0.00276137660942127
0.00277316093825463
0.00278010296732014
0.00278423830095759
0.00278806051913475
0.00279102070074847
0.00279304134912708
0.0027946453170671
0.00279627539540654
0.00279803559518543
0.00279993683559062
0.00280197022748363
0.00280427174356448
0.0028068863563357
0.00280977079607217
0.00281282233883112
0.00281587277845499
0.00281862798096038
0.00282051714689086
0.00282043547511422
0.00281524985415218
0.00279903301244262
0.00308313892616534
0.00300033194884555
0.00226632039044497
0.002481026955844
0.00268135553869711
0.00282595436103046
0.00291140930469419
0.00295809300306912
0.00298353339380439
0.00299849490583657
0.00300759413761323
0.00301320168294713
0.00301820600016364
0.003022094518959
0.00302475863769385
0.00302678011580592
0.00302867698019401
0.0030305816906842
0.00303251201445508
0.00303445455689118
0.00303655317449014
0.00303885416599611
0.00304129965401674
0.0030437572545185
0.00304601453388605
0.00304769638322164
0.00304810876021152
0.00304592446891591
0.00303747939922866
0.00301616875895659
0.00329009419265989
0.00325011806042807
0.00239449168910636
0.00263012892444908
0.00285402797676046
0.0030180551575637
0.0031166857581578
0.00317184520833494
0.00320283374474774
0.00322151248599841
0.00323319500754734
0.0032405981257014
0.00324701969762892
0.0032520487209068
0.00325553027590465
0.00325810411100769
0.00326036976200611
0.00326249351371238
0.00326450223979976
0.00326637885723615
0.00326827513111326
0.00327024009669329
0.0032722024573598
0.00327400022803057
0.00327537705881375
0.0032758696439917
0.00327466430948823
0.0032702066486791
0.00325830673499704
0.00323164067670133
0.00349201964499959
0.00349931937548412
0.00251425874960189
0.00277224584556512
0.0030205412468203
0.00320484548153985
0.00331758998170787
0.00338210700218241
0.00341939703133607
0.00344239370514938
0.0034571427275772
0.00346671362453631
0.00347482200239773
0.00348123727638648
0.003485740254454
0.00348902743936903
0.0034917863449551
0.00349422328737492
0.00349637712560887
0.00349822830155056
0.00349993679081121
0.00350155599660323
0.00350300275655472
0.0035040860135365
0.00350450602717973
0.00350370539517368
0.00350075503193899
0.00349387096838319
0.00347834953022856
0.00344610712675505
0.0036902420021922
0.00374914327541218
0.00262517798359557
0.0029073369005257
0.0031807833507737
0.00338614466879448
0.0035139344696638
0.00358873014029809
0.00363313543076018
0.00366111506181384
0.00367947522204598
0.00369164025626862
0.00370174475167711
0.00370982881986459
0.00371559050657548
0.00371978132410305
0.00372318316950493
0.00372604950699492
0.00372843477087118
0.00373031857078342
0.0037318696771904
0.00373314770252118
0.00373405952427506
0.00373438602809716
0.00373378278908926
0.00373159971928358
0.00372679121055035
0.00371734568316501
0.0036980645958611
0.00366007597273194
0.00388581563141189
0.00400010191188596
0.0027268066549748
0.00303523692344633
0.00333449560088439
0.00356160870321898
0.00370536208399993
0.00379139397686941
0.00384378965125186
0.00387748506529931
0.00390006641103636
0.00391531143864076
0.00392776718332483
0.00393784248002638
0.00394513691432478
0.0039504543300603
0.00395467702142236
0.00395811370320027
0.00396083878083995
0.00396283314041646
0.00396427521801395
0.00396523287862558
0.00396560528993577
0.00396514681089852
0.00396346725562156
0.00395982634034037
0.00395306176948919
0.00394093841012418
0.00391778831674364
0.00387394374411145
0.00407960571655087
0.00425204795732044
0.00281885342861793
0.0031556738076449
0.00348129220978832
0.00373075196189239
0.00389136861691087
0.00398962803633985
0.00405095092457071
0.00409116607421856
0.00411864771394437
0.00413752340090519
0.00415273812315998
0.00416516991050616
0.00417431155899422
0.00418101487028673
0.00418626780106902
0.00419044347155328
0.00419364155572283
0.0041958468302842
0.00419724855671897
0.00419792509258747
0.00419777048698167
0.00419651466535132
0.0041937207242471
0.00418856186089164
0.00417975984366748
0.00416486204411092
0.00413776275753793
0.00408801650409575
0.00427233874433564
0.00450421774448957
0.00290121586371839
0.00326828348319258
0.00362066786696438
0.00389295930305039
0.00407131633933099
0.00418282591679543
0.00425407438967621
0.00430168752153994
0.0043348209441471
0.00435794795386374
0.00437638935095817
0.00439158852929836
0.00440293622661892
0.00441132496262911
0.00441785254758384
0.00442296676289486
0.00442679884282723
0.00442934061789146
0.00443079362472204
0.00443124914586658
0.00443059904274406
0.00442855153244915
0.00442462200099484
0.00441790215835418
0.00440699945395195
0.00438925170651158
0.00435815269895511
0.00430252383460976
0.00446463016131405
0.00475533544959398
0.00297386720851991
0.00337260700744463
0.00375199585804023
0.00404749118550623
0.00424444141683689
0.00437025344196077
0.00445248696207183
0.00450845352470586
0.00454806561551479
0.00457613958301411
0.00459834300577824
0.00461676892096229
0.00463073011387215
0.00464114816571068
0.0046492336426987
0.00465552035709178
0.00466017847436619
0.00466321063870678
0.00466483240102235
0.00466515058959897
0.00466405814912711
0.0046612450461255
0.00465617767909738
0.00464787291614545
0.00463482628390903
0.00461417574903098
0.00457905667709458
0.00451762444008592
0.00465699296876489
0.00500374170657964
0.0030366806240106
0.00346807129383605
0.0038745207889437
0.00419348351346068
0.00440985681439213
0.00455105294668271
0.0046453915766965
0.00471074671696683
0.00475774249897147
0.00479153871467021
0.00481811477724416
0.0048402782411247
0.00485731353642852
0.00487015347727044
0.0048801229724783
0.00488785429512426
0.00489356506383473
0.0048972731456836
0.00489921013211827
0.00489950120120748
0.00489804399279978
0.00489451455795085
0.00488832836281352
0.00487843608957627
0.00486322437011327
0.00483964263962559
0.00480051388662816
0.00473341429599569
0.00484984005695374
0.00524750087581342
0.00308929296385915
0.00355395768245673
0.00398734409444775
0.00432994373714028
0.00456655196368053
0.00472424487433078
0.00483186892029827
0.00490772946623462
0.00496309457587345
0.00500347228376668
0.00503511403041923
0.0050615808523465
0.00508220878317314
0.00509791631892556
0.00511014316640308
0.00511963338417363
0.00512666177222395
0.00513126653713991
0.00513369762045797
0.00513410153022253
0.00513238455471415
0.00512821424744654
0.00512095194978982
0.00510949342799499
0.00509211983471281
0.00506560486839955
0.00502250810623359
0.0049499277269074
0.00504346955380601
0.00548450867754544
0.00313105002138902
0.00362935572566074
0.00408940568785443