/*--------------------------------*- C++ -*----------------------------------*\
  =========                 |
  \\      /  F ield         | OpenFOAM: The Open Source CFD Toolbox
   \\    /   O peration     | Website:  https://openfoam.org
    \\  /    A nd           | Version:  6
     \\/     M anipulation  |
\*---------------------------------------------------------------------------*/
FoamFile
{
    version     2.0;
    format      ascii;
    class       volScalarField;
    location    "0.0052";
    object      p;
}
// * * * * * * * * * * * * * * * * * * * * * * * * * * * * * * * * * * * * * //

dimensions      [1 -1 -2 0 0 0 0];

internalField   nonuniform List<scalar> 
18800
(
20279.6085459297
20280.9976989125
20222.8617086138
20213.6468203549
20203.421445416
20206.1826131455
20232.6683886453
20183.9388761893
20280.3744502568
20281.1795666024
20222.8960406517
20213.6443537861
20203.4096055779
20206.0792543889
20231.6289683039
20182.6203532544
20278.9514996103
20281.351312835
20222.9529858204
20213.6562511051
20203.4109470154
20206.3906771751
20233.335169741
20183.0187286739
20282.7768525523
20281.6284812561
20223.0782713356
20213.7081381497
20203.446538429
20206.1722319947
20233.5904895689
20183.6716712866
20275.4960843955
20281.8198430481
20223.2248194913
20213.7871961336
20203.5106364379
20206.3973773782
20233.8852340695
20183.8158629557
20275.046404501
20282.0369772045
20223.4064329672
20213.8833285549
20203.5844340364
20206.3549401427
20234.0456265796
20184.8223532763
20279.7528909463
20282.2406707372
20223.5856309648
20213.9836553896
20203.6596340404
20206.4687402047
20233.6658133552
20185.2621358227
20280.4603450248
20282.3654845718
20223.7874054766
20214.0905920395
20203.7358878745
20206.5043940176
20233.0706216308
20185.6394811948
20281.5071045298
20282.5018242435
20223.9779992087
20214.2038105632
20203.8150988288
20206.5870511942
20233.0556686588
20185.9149951841
20283.1248337162
20282.4924075104
20224.2019853808
20214.3263264599
20203.8988251236
20206.6536200875
20233.1265517759
20186.9981561892
20284.0099530706
20282.5426198573
20224.3726811457
20214.4569255156
20203.9876502822
20206.729655434
20233.1804635665
20187.6350818414
20278.9233983774
20282.4260644622
20224.6141605814
20214.5952105257
20204.0816449234
20206.805628787
20233.16720207
20186.3839974297
20277.2805503203
20282.4757851044
20224.7166317822
20214.7379962063
20204.1805208895
20206.8856912242
20233.2451971887
20186.8373558991
20279.1051815432
20282.3601821631
20225.0077126592
20214.8906915635
20204.2837089254
20206.9671723813
20233.4173218948
20187.3917589204
20279.8565289954
20282.4660949611
20224.9627985355
20215.0427840811
20204.3907133247
20207.0508497114
20233.4571402627
20187.5629079457
20280.2226681553
20282.2866850193
20225.3831151596
20215.206459365
20204.5006603104
20207.1352083481
20233.4706857619
20187.7884347633
20280.1364052763
20282.4034233308
20225.0921692304
20215.353854126
20204.6130005804
20207.2184080111
20233.5400286335
20188.0913714277
20280.0307586494
20282.1189541586
20225.7542874895
20215.5190649248
20204.7259396761
20207.3000746702
20233.5942802057
20188.4109772746
20279.8931734221
20281.9913382275
20225.1572800635
20215.6343069315
20204.8385218404
20207.3760791782
20233.6551347759
20188.7247123911
20279.7778233255
20281.6477319863
20226.1068799327
20215.7830814176
20204.9461056301
20207.4492249017
20233.7066843074
20189.021873943
20279.6522721344
20281.6058079698
20225.3144906535
20215.8387073384
20205.0483662691
20207.5072509328
20233.7426687476
20189.2888106984
20279.7145967297
20281.4755102839
20226.5614518707
20215.9401503551
20205.135301858
20207.5665427349
20233.7515605575
20189.4604905167
20279.8426598626
20281.4374340153
20226.0137323842
20215.967701324
20205.2123078066
20207.5859916554
20233.7423863789
20189.4437244757
20280.0971240408
20281.3850925039
20225.8874444296
20215.9763816668
20205.2679799355
20207.6301852149
20233.7049375192
20189.2215502745
20279.604686187
20281.1519751573
20226.2397441056
20216.0764456227
20205.3062928543
20207.5703867682
20233.6468118137
20188.8829312244
20279.719001162
20280.5970536229
20226.4840281609
20216.0275729835
20205.3426776166
20207.6091901007
20233.5257037804
20188.4413673851
20279.6391455202
20280.0862155169
20226.3925178774
20216.1180767215
20205.3436975121
20207.4162153533
20233.3912266556
20187.8829865485
20279.7225020339
20279.6211235815
20226.8561726839
20216.211129229
20205.3704985297
20207.4722332547
20233.1097583769
20187.2820673698
20279.9303103569
20279.394355732
20226.7167125053
20216.154249176
20205.4023706155
20207.1388748712
20232.7811295838
20186.797851031
20280.0610383706
20278.7933268498
20227.15501376
20216.3608606411
20205.4045428979
20207.219616218
20231.7189689998
20185.8326155875
20280.1950246851
20278.7192353201
20227.1715158699
20216.3467476305
20205.6037742794
20206.8238991364
20230.4999183315
20184.4034469969
20280.2832359648
20278.1838076413
20227.2394240401
20216.3512995837
20205.6625894652
20206.9392688938
20229.7676925601
20183.049582452
20280.4204521579
20277.5215352179
20227.4005463378
20216.5313089188
20205.6366087235
20206.7378337929
20229.3723369885
20181.8227789653
20280.5610102295
20277.0135936762
20227.5803686294
20216.3698782039
20205.694946592
20206.8097985154
20229.4527357887
20180.9264224145
20280.7084154554
20276.529996784
20227.777017765
20216.4447996359
20205.6917483751
20206.4921743757
20229.7084181945
20180.3228895931
20280.8612204438
20276.0342414273
20227.9431388745
20216.7268859494
20205.7034243243
20206.399277428
20229.593290839
20179.9420081155
20281.0201012765
20275.5275997264
20228.0894683283
20216.6044201803
20205.7344737095
20206.0832941495
20228.9804270896
20179.2896254639
20281.1829550722
20275.008285144
20228.2368544427
20216.4598711521
20205.7217703881
20206.001356038
20228.282296569
20178.6740860973
20281.3495575445
20274.4744223999
20228.3960998352
20216.5046636601
20205.7228966288
20205.7408875724
20227.5423084871
20178.2321329348
20281.5170841408
20273.9266060684
20228.5539126196
20216.5809248968
20205.7869574058
20205.6686070758
20226.6996252902
20178.3952526537
20281.6874748196
20273.3681513037
20228.7045008203
20216.6301430081
20205.8764600486
20205.443931244
20225.8435160685
20178.3757805507
20281.8633528311
20272.8023804649
20228.8501836113
20216.6583940131
20205.8863832341
20205.2887957703
20224.6119219829
20179.1685208274
20282.0461194407
20272.2209282839
20228.9918661887
20216.6968665432
20205.9782823338
20205.2623961308
20223.6673357048
20178.5472759252
20282.2358948774
20271.6257425356
20229.148147254
20216.7657932527
20206.0292207481
20205.2195650239
20221.9589639648
20178.8521852358
20282.4325265051
20271.0213189215
20229.3052518228
20216.7098947236
20206.0498227457
20205.0766575694
20220.4005646004
20179.3299511518
20282.6358439788
20270.4078950646
20229.4598854156
20216.6720993197
20206.0691883973
20204.9044455923
20219.0932785626
20179.4504730922
20282.8456414121
20269.7827245423
20229.59653989
20216.7007451246
20206.0994504638
20204.7494824086
20217.5405194281
20179.6267676117
20283.0615768367
20269.1377782401
20229.7713704288
20216.7439911058
20206.1446391625
20204.5858700744
20216.1147794174
20179.5559737486
20283.2827116794
20268.4757372196
20229.9211647846
20216.8021551245
20206.1947716982
20204.2966595538
20214.594380841
20179.4203766858
20283.5085399844
20267.7985459776
20230.0746226843
20216.8986955118
20206.2341713459
20204.0085309463
20213.0712448059
20179.178878881
20283.7383377851
20267.1091270504
20230.2199477829
20217.0097298489
20206.2919484598
20203.6587437375
20211.4799246705
20178.886747916
20283.9713944809
20266.4087963027
20230.3588380259
20217.0891392352
20206.3559756993
20203.2610238931
20209.8485729965
20178.5384011119
20284.2068164633
20265.6973900729
20230.5061265085
20217.1177150041
20206.4203405823
20202.7889702141
20208.1858395472
20178.1191077771
20284.4432912959
20264.9774153252
20230.6482015793
20217.1335450553
20206.4828177809
20202.3166823892
20206.5531106311
20177.6095528628
20284.6796860474
20264.2511670201
20230.7854383245
20217.1532116575
20206.5417300805
20201.7866071107
20204.9434179388
20177.0235670545
20284.9147768296
20263.5198719886
20230.9206003282
20217.1664316469
20206.5694371695
20201.2315273187
20203.2215292925
20176.3545437269
20285.1471716169
20262.7852259229
20231.0545731808
20217.1560431595
20206.5672405722
20200.6888822892
20201.4278767444
20175.5301132563
20285.375206874
20262.0509531919
20231.1827390724
20217.1828211718
20206.5382282833
20200.1390023103
20199.6604067603
20174.4880412488
20285.5973294132
20261.3186904867
20231.3091371014
20217.1857545535
20206.4799936316
20199.5425512512
20197.9143965668
20173.3269807664
20285.8117400367
20260.5923034069
20231.4302935774
20217.1722309225
20206.3779746376
20198.9257655727
20196.0397473974
20171.9384469028
20286.0169024537
20259.874594197
20231.5486568706
20217.1098263098
20206.1901814864
20198.3230787758
20194.3351800053
20170.2153523657
20286.2113845746
20259.1698047296
20231.6611097767
20216.9966503687
20205.9856927685
20197.6648282202
20192.5987506069
20168.8830151534
20286.3941481338
20258.4823836971
20231.7676806816
20216.8664558452
20205.6955725384
20196.9974024986
20190.866751223
20167.2882736852
20286.5649547988
20257.8172117631
20231.8666570007
20216.7346809859
20205.370447219
20196.316258607
20189.1218778974
20165.535068823
20286.7247426026
20257.1798528052
20231.9567589058
20216.6062479324
20204.9680089869
20195.5811577764
20187.3627673896
20163.6048530524
20286.8765008062
20256.5746929004
20232.03697794
20216.4714451955
20204.6148405812
20194.8095145268
20185.5537337314
20161.6578573588
20287.0260304293
20256.0049299469
20232.1040095798
20216.328151964
20204.1643485776
20193.9696525221
20183.6515143581
20159.5802065808
20287.1824930519
20255.4722792343
20232.1589412737
20216.1651611257
20203.7808197863
20193.0705425393
20181.7178079807
20157.3804977336
20287.3581971202
20254.976630803
20232.1978221942
20215.9823481382
20203.3191310937
20192.1255002871
20179.7290361837
20155.054813604
20287.5647786944
20254.5117261045
20232.2235269078
20215.7839211052
20202.8364282956
20191.135522516
20177.7043023811
20152.6083851512
20287.8017005153
20254.074705669
20232.2313571431
20215.5691848238
20202.3189648354
20190.0975342193
20175.6406066173
20150.0442753986
20288.04528889
20253.6534058956
20232.2172135148
20215.3432764308
20201.7745962409
20189.0093047034
20173.5383615239
20147.3744809056
20288.2417840283
20253.2392326806
20232.1830438876
20215.0917843032
20201.1940654951
20187.8696208939
20171.396305109
20144.6050846973
20288.341069231
20252.8179889412
20232.1262771133
20214.9731617463
20200.5778288739
20186.6717655084
20169.2075888932
20141.7438661994
20288.415613361
20252.3393710374
20232.0405125053
20214.8426212856
20199.9419741527
20185.4368383473
20166.9735010563
20138.7953282547
20288.4817973693
20251.8780020361
20231.9702328923
20214.6895102305
20199.2726793082
20184.157246516
20164.6944963984
20135.7675041781
20288.5421169134
20251.4282444798
20231.8521016662
20214.4539719019
20198.5659087459
20182.830365437
20162.3717152885
20132.6696646639
20288.5969569171
20250.9890418205
20231.7202016804
20214.1755076184
20197.8216497326
20181.4527925246
20160.0053203618
20129.5135888664
20288.6456649372
20250.5656638325
20231.5633463063
20213.844209799
20197.0479288402
20180.0293325188
20157.5987168391
20126.3142569735
20288.6895900473
20250.1552082169
20231.386055255
20213.4448389808
20196.2424593569
20178.5622375584
20155.1591690847
20123.09016368
20288.7288957536
20249.7579420704
20231.189381356
20213.011929187
20195.4030569225
20177.0493119501
20152.692846475
20119.8411697741
20288.7641515364
20249.3732894531
20230.9749869699
20212.5519585891
20194.5347088316
20175.4957736144
20150.2075066246
20116.5635404185
20288.795868439
20249.000903132
20230.7433503724
20212.0667390953
20193.6374843077
20173.9048537084
20147.7140424963
20113.273879394
20288.8245005178
20248.640329042
20230.4954975711
20211.5588331362
20192.7144942031
20172.2807528092
20145.2243283707
20109.982083964
20288.8504641615
20248.2912174208
20230.2327345751
20211.0300721733
20191.7689458904
20170.6288458419
20142.7520898745
20106.6985418425
20288.8741362605
20247.9532869289
20229.9565334724
20210.4827121877
20190.8047030678
20168.9564628521
20140.3111064525
20103.4389196449
20288.8958520487
20247.6263375067
20229.6685065177
20209.9194547404
20189.8263516329
20167.2731029729
20137.9134499589
20100.2121351684
20288.9159124496
20247.3102927046
20229.370382479
20209.3434140615
20188.839321235
20165.5906089054
20135.5658953125
20096.9990568295
20288.9345885226
20247.0052748475
20229.0641080755
20208.7581501144
20187.8498641813
20163.9216368355
20133.2774145272
20093.8343822987
20288.9521236322
20246.7117022276
20228.7519976632
20208.1678029576
20186.8652350793
20162.2800587332
20131.0573827347
20090.7362702905
20288.9687300606
20246.4303886282
20228.43689414
20207.5773100751
20185.8938449685
20160.6807199086
20128.9175029363
20087.722872169
20288.9845755966
20246.1626244213
20228.1223377968
20206.9926627666
20184.9453948947
20159.1394153727
20126.8723456837
20084.8179802841
20288.9997600342
20245.9102256982
20227.8127572836
20206.4212386382
20184.030932608
20157.6723176779
20124.944358779
20082.0711378177
20289.0142881158
20245.6755573249
20227.5136190539
20205.8721238852
20183.1631770792
20156.2975626294
20123.1570370595
20079.5132624434
20289.0280463697
20245.4615347494
20227.2314383246
20205.3562989128
20182.3570282814
20155.0357410807
20121.5327748611
20077.1766031411
20289.0407826745
20245.2716201509
20226.9736809984
20204.8867153426
20181.6301345986
20153.910374237
20120.0973124632
20075.1021300645
20289.0520866374
20245.1099479582
20226.7488080471
20204.4783023836
20181.0029842869
20152.947821918
20118.8778692104
20073.3330472018
20289.0614950981
20244.9812896065
20226.5658494753
20204.1462303978
20180.4953276462
20152.1726988462
20117.8985809902
20071.9113255331
20289.0684816188
20244.8883769027
20226.4303300035
20203.8999542763
20180.1175795792
20151.5953778396
20117.1663567882
20070.8424453707
20289.0724304703
20244.8345627168
20226.3488946347
20203.7534664687
20179.8993873801
20151.2679039008
20116.7649571976
20070.2463501983
20288.4194187709
19987.8293238898
19880.1516546305
19767.219344421
19657.0529884425
19545.5951633515
19432.1281123934
19315.4755932241
19195.0877654829
19070.6460308471
18941.7452877648
18808.0213660275
18669.5900411418
18525.7849276489
18376.0997014641
18219.3818509545
18054.5844423461
17880.1202309709
17695.3526872166
17499.1675350668
17290.2568588724
17066.7223290787
16825.850189174
16563.5888545768
16274.1091164274
15948.0568073429
15570.8912975562
15114.2944952726
14527.6794015978
13781.5311131962
20288.3430451209
19987.1169599185
19879.65087123
19767.005288626
19656.8417113448
19545.3825374021
19431.9170642515
19315.2617182389
19194.8693518169
19070.4226417724
18941.516569514
18807.7876736976
18669.3495879381
18525.5375034098
18375.8447884076
18219.117275469
18054.3092372285
17879.8336478589
17695.0535347079
17498.8546961453
17289.9288485747
17066.3771890538
16825.4851281273
16563.2000935682
16273.6908972214
15947.6003686665
15570.378489305
15113.5988534042
14525.571840346
13776.1850773527
20287.561231779
19986.9712518669
19879.8847878414
19767.0809263417
19656.9145305355
19545.4545989684
19431.9869095455
19315.3319564356
19194.9408216857
19070.4954100145
18941.5910421683
18807.8620968532
18669.4275585762
18525.6164154449
18375.9250315872
18219.2008962803
18054.3960618491
17879.9237058915
17695.1472312737
17498.9521499588
17290.030289035
17066.482906399
16825.59561818
16563.3159673447
16273.8132253421
15947.7306310451
15570.5183419528
15113.7788969207
14525.5408601451
13774.3446814672
20287.2379798421
19987.9626976781
19880.0077530965
19767.0256745986
19656.8620848504
19545.4044430133
19431.93856247
19315.2837525821
19194.8911351236
19070.444238966
18941.5374829567
18807.8097140655
18669.3707036288
18525.5587211376
18375.8657638833
18219.1387877296
18054.3310121827
17879.8556739491
17695.0759674255
17498.8775049336
17289.9519903543
17066.4005021862
16825.5083088408
16563.2225798584
16273.7117215266
15947.6175352351
15570.3862136083
15113.5534918845
14525.9206879484
13773.3714641593
20287.0443733038
19987.5021942585
19880.0201168476
19767.0795692791
19656.9124371561
19545.4544715751
19431.9880917548
19315.3333442255
19194.9407513313
19070.493659591
18941.5884929389
18807.8591745028
18669.4216866268
18525.6097584307
18375.9170693638
18219.1909480587
18054.3838935435
17879.9092823749
17695.1304193508
17498.9327974379
17290.0081101327
17066.4573644731
16825.5657497561
16563.2802871134
16273.7691223331
15947.6733127138
15570.4366590527
15113.5911163265
14526.0280547941
13772.579083066
20286.8448622534
19987.8852198576
19880.0524293668
19767.0695567155
19656.9002446968
19545.4420394201
19431.9761850704
19315.3208329696
19194.9271305949
19070.479018214
18941.5733222767
18807.8431277532
18669.4041079448
18525.591221682
18375.8973941915
18219.1697655932
18054.3610324495
17879.8846649878
17695.1039224873
17498.9042631109
17289.9772826584
17066.423816502
16825.5287940727
16563.2389080008
16273.7216319836
15947.6166869306
15570.3641268896
15113.4912378377
14525.8673310768
13771.7479301122
20287.3027550876
19987.753658812
19880.0611618501
19767.0761101733
19656.8989025272
19545.4401427057
19431.9732062575
19315.3169270712
19194.9219379386
19070.473225038
18941.5665257658
18807.8352200686
18669.3951423248
18525.5810184789
18375.885901241
18219.1569394303
18054.3466558356
17879.8686080531
17695.086076995
17498.8844266337
17289.9551609943
17066.3989382478
16825.5004528388
16563.2060768223
16273.6826706694
15947.5686592106
15570.3008349983
15113.4247198471
14525.6641062479
13770.8944653391
20286.763877599
19988.3330407197
19880.0790451676
19767.0658395809
19656.8854264422
19545.4262521314
19431.9564108468
19315.2991723122
19194.9025267745
19070.4534451511
18941.5449286421
18807.8127264189
18669.3710504626
18525.5554935521
18375.8588230674
18219.1281145127
18054.3158737623
17879.8357196964
17695.0509426859
17498.8468216453
17289.914751337
17066.3551850545
16825.4525511372
16563.1528687243
16273.6223237843
15947.4979440593
15570.2131665871
15113.3365546609
14525.5187225197
13770.0444861733
20286.4444521317
19989.2410225109
19880.0926804984
19767.0613717506
19656.8751079129
19545.4117900295
19431.9405534372
19315.2818968449
19194.8835369475
19070.4339223442
18941.5235856784
18807.7902802454
18669.3469889409
18525.5298693542
18375.8315337584
18219.0990115649
18054.2847478485
17879.8024029836
17695.015297637
17498.808613587
17289.8736321753
17066.3105861875
16825.40363547
16563.0984402724
16273.5605129036
15947.4254741079
15570.1234958569
15113.2501254359
14525.4186343627
13769.2694480308
20286.3406840615
19988.1919940203
19880.1058740401
19767.0567819685
19656.8629475743
19545.3963183931
19431.9226400439
19315.2623039674
19194.8621447854
19070.4116918671
18941.4996529501
18807.7650900683
18669.3200346653
18525.5012625775
18375.8011601848
18219.0667014283
18054.2503027711
17879.7656429324
17694.9760832939
17498.7667073132
17289.8286754723
17066.2619808848
16825.3505044964
16563.0395381071
16273.493908222
15947.3478092142
15570.0281633525
15113.1590124074
14525.3303616299
13768.6374091505
20284.8852687427
19987.2721361572
19880.1200805395
19767.0546274483
19656.8519283953
19545.3811125575
19431.9048409346
19315.2424926584
19194.8404079682
19070.3888213404
18941.4751855392
18807.7391715818
18669.2922499568
18525.4717235711
18375.7697493417
18219.0332524294
18054.2146267794
17879.7275458521
17694.935427006
17498.723252158
17289.7820548633
17066.2115694607
16825.2953908567
16562.9784357722
16273.4248451774
15947.2673849112
15569.9297897202
15113.0652196541
14525.2276702768
13768.1135539018
20284.2030982474
19986.4365817872
19880.1371809738
19767.0536884316
19656.8415314547
19545.3660458619
19431.8867221626
19315.2220752125
19194.8179082963
19070.3649020325
18941.4497504232
18807.7121075546
18669.2631972864
18525.4408186217
18375.7368646571
18218.9982166861
18054.1772630017
17879.687645979
17694.8928540669
17498.6777665331
17289.733283469
17066.1588599544
16825.2377963287
16562.914629422
16273.3528161538
15947.1837034982
15569.8279201756
15112.9668179237
14525.1108822631
13767.6023659652
20283.059090754
19986.9753801611
19880.1615078468
19767.0547376697
19656.8322166996
19545.3513529978
19431.868589197
19315.2013410901
19194.7949162212
19070.3401522831
18941.4236031837
18807.6841191648
18669.233095899
18525.4087590006
18375.7027079465
18218.9617894313
18054.1384013205
17879.6461268015
17694.8485422603
17498.6304239373
17289.6825317692
17066.1040203005
16825.17788713
16562.8482862714
16273.2779985637
15947.0969758148
15569.7228558246
15112.8630893783
14524.9920996938
13767.0133126356
20282.0637936465
19987.5970131498
19880.1903982113
19767.0567296842
19656.823972572
19545.3370983866
19431.8504393594
19315.1802798385
19194.7714210139
19070.3144569958
18941.3967290383
18807.6551442946
18669.2018756897
18525.3754714028
18375.6671988281
18218.9238828143
18054.0979483705
17879.6028886384
17694.8023864014
17498.5811154106
17289.6296886617
17066.0469376201
16825.1155496559
16562.7792937556
16273.2002894546
15947.0071315308
15569.6146140282
15112.7535553698
14524.8789577023
13766.2721251882
20281.8878817783
19987.7778591079
19880.2215758107
19767.0606455807
19656.816939208
19545.3234042743
19431.8323889318
19315.1589823565
19194.7475214368
19070.2877738815
18941.3692211278
18807.6252132238
18669.1695600503
18525.340972861
18375.6303454682
18218.8844972342
18054.0558989994
17879.5579198797
17694.7543693301
17498.5298202365
17289.5747312819
17065.9875876489
16825.0507592107
16562.7076303719
16273.1196800875
15946.9142000002
15569.5033283558
15112.6387705295
14524.7700978387
13765.4712086093
20282.3554938524
19987.6990709918
19880.2544092557
19767.0668766597
19656.8112240656
19545.3103794178
19431.8145077447
19315.1375146241
19194.7232866424
19070.2600627226
18941.3411266074
18807.5943347708
18669.1361512414
18525.305258128
18375.5921336297
18218.8436107466
18054.0122261001
17879.5111872384
17694.7044527996
17498.4764972965
17289.5176173385
17065.9259273464
16824.983473413
16562.6332589071
16273.0361484121
15946.8182013042
15569.389135192
15112.5203362522
14524.6407970175
13764.5707378366
20282.0560519053
19987.7053613749
19880.2900029171
19767.0754242541
19656.8069956479
19545.2981478096
19431.7968425799
19315.1159644218
19194.6987788955
19070.2314077397
18941.3124368464
18807.5625381611
18669.1016743407
18525.2683409412
18375.552566982
18218.8012189471
18053.9669200142
17879.4626747219
17694.6526158403
17498.4211230643
17289.4583222758
17065.8619318888
16824.9136689965
16562.5561622574
16272.9496948375
15946.7191825727
15569.2722054806
15112.3998934258
14524.4759334468
13763.5633987037
20281.342327318
19987.3963498807
19880.3249407038
19767.0864807748
19656.8043780818
19545.286662822
19431.7796103843
19315.0944269309
19194.6740305178
19070.202035147
18941.2830491408
18807.529859703
18669.066165101
18525.2302410371
18375.5116545067
18218.7573224903
18053.9199761635
17879.4123713601
17694.5988426814
17498.3636795709
17289.3968275254
17065.7955828543
16824.8413298295
16562.4763318597
16272.86033082
15946.6172070226
15569.1527258639
15112.2784669664
14524.3056136103
13762.4540266484
20280.509681979
19987.4518036534
19880.3631287686
19767.0992708382
19656.8033586074
19545.276356651
19431.7629271425
19315.0730091164
19194.6490763332
19070.1722379994
18941.2528227124
18807.4963505801
18669.0296755283
18525.1909888289
18375.4694150846
18218.7119315695
18053.8713994684
17879.3602754527
17694.5431268647
17498.3041585303
17289.3331244149
17065.726872096
16824.7664506756
16562.3937713717
16272.7680825686
15946.5123579618
15569.0309014771
15112.1564514582
14524.1499899107
13761.2529640834
20279.3395021837
19987.7062603908
19880.4043983544
19767.113794244
19656.8042227054
19545.2671999711
19431.7469025907
19315.0518295859
19194.6239881851
19070.1422614423
18941.2216431217
18807.4620880389
18668.9922730661
18525.1506242692
18375.4258768509
18218.665065243
18053.8212035843
17879.3063938892
17694.4854706113
17498.2425606571
17289.2672135757
17065.6558010468
16824.6890366189
16562.3084961744
16272.6729905821
15946.4047385098
15568.90695548
15112.0337077607
14524.0076875841
13759.9629323896
20278.2250546654
19987.6366327231
19880.4437533078
19767.1308091626
19656.8071004453
19545.259273419
19431.7316718868
19315.0310184487
19194.5988858251
19070.112263778
18941.1894174597
18807.4272121265
18668.954041487
18525.1091977918
18375.3810786137
18218.6167526635
18053.7694122107
17879.2507433428
17694.425885998
17498.1788969445
17289.1991061464
17065.5823822387
16824.6091042732
16562.2205345748
16272.5751110362
15946.2944727303
15568.781131438
15111.9098098341
14523.8813259761
13758.5956932601
20277.4409097084
19987.6554405846
19880.483594608
19767.1502323702
19656.8121050403
19545.2527341094
19431.7173785961
19315.0107178328
19194.5739237478
19070.0823943524
18941.1559343228
18807.392003211
18668.9150796437
18525.0667711096
18375.3350709413
18218.5670339839
18053.7160599441
17879.1933511482
17694.364395893
17498.1131895939
17289.1288246559
17065.5066401218
16824.5266828497
16562.1299288516
16272.4745168736
15946.181706533
15568.6536990564
15111.7845673485
14523.771697156
13757.1841974263
20276.6327577201
19987.6244630966
19880.522267272
19767.1725016335
19656.8186812595
19545.2477271688
19431.7041660486
19314.9910884357
19194.5492736298
19070.0528634352
18941.1207542686
18807.3569458832
18668.8754954365
18525.023419671
18375.2879177408
18218.5159615153
18053.66119347
17879.1342565048
17694.3010351688
17498.0454732665
17289.0564042342
17065.428611804
16824.4418155312
16562.0367365994
16272.3712992831
15946.0666089176
15568.5249591321
15111.6581350187
14523.6785108156
13755.7438209835
20275.8410737377
19987.6184725899
19880.5600134619
19767.1964457517
19656.8286021396
19545.2444016848
19431.6921707549
19314.9723166765
19194.5251109178
19070.0238912043
18941.0835384335
18807.3224745037
18668.8353918813
18524.9792381524
18375.2396978471
18218.4636009327
18053.604872868
17879.0735117063
17694.2358520216
17497.9757964631
17288.9818939724
17065.3483488244
16824.3545608514
16561.9410321912
16272.2655692621
15945.9493735365
15568.3952472962
15111.5309070728
14523.6007681147
13754.2899067164
20274.7734249196
19987.6415836949
19880.596600954
19767.2225807355
19656.8409210877
19545.2428848512
19431.6815277195
19314.9546083703
19194.5016072979
19069.9954349835
18941.045183236
18807.2881240402
18668.7948529078
18524.9343489655
18375.1905065357
18218.4100325982
18053.5471729779
17879.011183553
17694.1689094318
17497.9042229762
17288.9053584784
17065.2659188363
16824.2649941374
16561.8429084039
16272.1574593553
15945.8302204802
15568.2649370959
15111.4034713929
14523.5367837475
13752.8352314636
20273.1473426742
19987.6903791146
19880.6328870728
19767.2508309443
19656.8549445113
19545.2432973792
19431.6723796843
19314.9381726897
19194.4789328592
19069.9672384401
18941.0075991402
18807.2526729447
18668.7539676002
18524.8889080449
18375.1404563223
18218.3553530189
18053.4881849382
17878.947354805
17694.100286736
17497.8308334976
17288.8268794544
17065.1814070458
16824.1732091955
16561.7424781492
16272.0471255029
15945.70939826
15568.1344423272
15111.2765445077
14523.4852890149
13751.4135315518
20271.5091101479
19987.7468508569
19880.6701875259
19767.280723947
19656.8709184881
19545.2457523397
19431.664880371
19314.9232133821
19194.4572661386
19069.9393315359
18940.9717770775
18807.2154796418
18668.7129278993
18524.8431047181
18375.0896769199
18218.2996765691
18053.4280177761
17878.882125757
17694.0300813067
17497.7557273002
17288.7465574001
17065.0949180491
16824.0793200786
16561.6398763239
16271.9347490251
15945.587185927
15568.0042198483
15111.1509267846
14523.4395339828
13750.0687738674
20270.3228999906
19987.8200874393
19880.7103612115
19767.3118968471
19656.8887292974
19545.2503495325
19431.659189308
19314.9099293103
19194.4368021679
19069.9120067527
18940.9377650533
18807.1763454697
18668.6722179186
18524.7971595064
18375.0383151901
18218.2431375744
18053.3668001017
17878.8156158609
17693.95841035
17497.6790239956
17288.6645134123
17065.0065776976
16823.9834629999
16561.5352617554
16271.82053872
15945.4638952937
15567.8747714214
15111.0275533816
14523.3872608305
13748.7554294318
20269.5597246645
19987.9089643026
19880.754049931
19767.3438110157
19656.9082696734
19545.2571709435
19431.6554659661
19314.8985157471
19194.4177560357
19069.8856100554
18940.9054856848
18807.1346804918
18668.6328468037
18524.751313598
18374.986538283
18218.1858928983
18053.3046818182
17878.7479654334
17693.8854127689
17497.6008653817
17288.5808910445
17064.9165351074
16823.8857983365
16561.4288192495
16271.7047330602
15945.3398732972
15567.7466455817
15110.9074951225
14523.3210020493
13747.393612267
20269.1266111619
19988.0048309038
19880.7984862002
19767.3758739941
19656.9293757366
19545.2662883677
19431.6538644901
19314.889164739
19194.4003613936
19069.8604561823
18940.8750236678
18807.0897284946
18668.5959464388
18524.7057909642
18374.9345452496
18218.1281248542
18053.241835857
17878.6793374095
17693.8112511344
17497.5214173142
17288.4958582688
17064.8249647441
16823.786512727
16561.3207617335
16271.5876024793
15945.2155044199
15567.6204376129
15110.7923492812
14523.2482609265
13746.0503246757
20268.6937274425
19988.1154602931
19880.837885488
19767.4070788132
19656.9520229756
19545.2777339844
19431.6545444145
19314.8820634497
19194.3848604693
19069.8368074899
18940.8460111896
18807.0438062313
18668.5601486624
18524.6607644034
18374.8825915225
18218.0700435653
18053.1784599754
17878.609919177
17693.7361136895
17497.4408716281
17288.4096094797
17064.732068606
16823.6858212639
16561.2113324589
16271.469451751
15945.0912136927
15567.4968003976
15110.6834393314
14523.1629681342
13744.7641959475
20268.1079289739
19988.2284654322
19880.8637517946
19767.4372410665
19656.9759626789