/*--------------------------------*- C++ -*----------------------------------*\
  =========                 |
  \\      /  F ield         | OpenFOAM: The Open Source CFD Toolbox
   \\    /   O peration     | Website:  https://openfoam.org
    \\  /    A nd           | Version:  6
     \\/     M anipulation  |
\*---------------------------------------------------------------------------*/
FoamFile
{
    version     2.0;
    format      ascii;
    class       volScalarField;
    location    "0.0052";
    object      rho;
}
// * * * * * * * * * * * * * * * * * * * * * * * * * * * * * * * * * * * * * //

dimensions      [1 -3 0 0 0 0 0];

internalField   nonuniform List<scalar> 
18800
(
0.128474702141757
0.126912452007158
0.125737569257275
0.125259232850265
0.124992999338978
0.124867820213207
0.124904528500869
0.124223668713826
0.128544853674811
0.126956654728126
0.125774675366313
0.125293965168233
0.125026046574679
0.124899863255968
0.124929951145867
0.124271771314265
0.128613887734942
0.127069595632544
0.125873796923223
0.12538593588702
0.125113167426873
0.124984303819085
0.124995384807423
0.124345855794174
0.128710361760943
0.127250895913368
0.126035745619832
0.125533219171188
0.125251103649457
0.125112154485634
0.125077043683771
0.124441717135419
0.128751402400985
0.127481250664934
0.126243285303933
0.125717602379002
0.12542115104568
0.125269942955569
0.125179993921835
0.124562062846091
0.128874131814456
0.127740039283983
0.126476445141505
0.125920405416398
0.12560520048157
0.125437716483071
0.125302979376721
0.12472151881785
0.129099905011967
0.128010856032325
0.126721247473213
0.126130466794631
0.125793210679868
0.125608904169589
0.125444631844388
0.124904814382728
0.129326809012464
0.12828113303954
0.126970764284539
0.126343221818122
0.125981507430105
0.125779458206228
0.125601990704548
0.125095407945091
0.129544917970377
0.128542306901922
0.127221829999888
0.126557532567124
0.12616952500537
0.125949703109691
0.125768953663163
0.12528016909499
0.129730627321453
0.128787329824989
0.12747349331247
0.126773685202731
0.126357870463303
0.126119924057603
0.125936572628664
0.125448044958702
0.129845859220095
0.129013812978503
0.127724727217137
0.126992388191631
0.126547488791156
0.12629102920191
0.126102398731821
0.125568959730875
0.129897460724491
0.129220627233649
0.127975468272389
0.127214390418835
0.126739359061744
0.126463692567851
0.126265984359998
0.125662105983711
0.129970450885601
0.129412033236504
0.128223793867649
0.127440289862983
0.126934396801059
0.126638606886753
0.126428768594153
0.125770987627513
0.130085448672624
0.129591145838604
0.128470386484587
0.127670499995166
0.12713342789434
0.126816422480913
0.126592624024995
0.125898644307022
0.130208512895868
0.129763780825584
0.128711718965871
0.127905060929269
0.127337182941454
0.126997808610644
0.126758545647106
0.126037996457552
0.130325324116146
0.129927854767191
0.128950521895266
0.128143754894462
0.127546284231653
0.127183408408775
0.126927793953045
0.126182316051978
0.130426438487137
0.130083723122444
0.129179020598772
0.128385687575115
0.127761223297401
0.127373829427107
0.127100840961956
0.126329432970682
0.130512646739546
0.130223908766597
0.129402384174842
0.128629646662422
0.127982301272259
0.127569636851144
0.127277724427986
0.126479499864831
0.130584996741431
0.130346770586259
0.12960558456859
0.12887314026805
0.128209550436933
0.127771304198853
0.127459159210369
0.126633940018329
0.130645599694527
0.130448819985044
0.129797509432025
0.129113559620471
0.128442566413259
0.127979228329848
0.127645748731963
0.126794952240993
0.130696646891478
0.130534439680141
0.129957164505369
0.129346487873702
0.128680327326275
0.128193554611769
0.127838156553547
0.126965403117171
0.130741978235804
0.130605955929685
0.130099361072771
0.129568345490455
0.128920819798347
0.128414294103679
0.128036979035988
0.127148393204492
0.130784980712199
0.13066794114675
0.130205597000764
0.129774171596539
0.129160831869622
0.128640736733718
0.128242812602063
0.127346059179827
0.130829332364562
0.130723535803218
0.130306431142054
0.129959946223383
0.129395618474324
0.128872045346986
0.128455997937079
0.127556341294934
0.130870375625033
0.130774224419076
0.130406035257376
0.13012264532131
0.129619367117118
0.129105452392787
0.128676781534867
0.127773322137193
0.13090589562247
0.130818841374033
0.130491827162611
0.130257679560737
0.129825808840946
0.129338508011888
0.128904805133236
0.127989958391526
0.130928257162211
0.130856147426966
0.130558269900975
0.130365175707841
0.130008747310944
0.129564421477056
0.129139335003198
0.128201150322924
0.130942032543247
0.130884684998975
0.130609170285394
0.130446282271034
0.130163731739594
0.129778703477158
0.129376704016738
0.128409517419111
0.130952172887166
0.130906101155535
0.13064039645787
0.130504567311906
0.130288005628201
0.129970198584399
0.129610269819015
0.128625327874925
0.130959264711411
0.130919065355076
0.130660294386965
0.130547308355928
0.130381223290367
0.130135306390755
0.129823262069641
0.12884662079323
0.130963739500299
0.130927800867647
0.130667946290686
0.130577035411096
0.130446644983322
0.130264479029278
0.130003323073371
0.129058736386063
0.130966044399518
0.130930675942756
0.130671639674096
0.130598660180785
0.130489194499279
0.130361332411646
0.13014804651258
0.129251003459261
0.130967629111424
0.13093067558408
0.130675509597373
0.130615371427298
0.13051712628074
0.130424632526966
0.130259499711216
0.129418089709021
0.130968840249713
0.130930555102011
0.130680177705168
0.13062580885854
0.130536227881505
0.130465750713168
0.130344642564145
0.129562262134189
0.130969870469725
0.13093043013585
0.130685802993966
0.130633507937311
0.130548649908874
0.130491113782066
0.130409841246255
0.129689648777588
0.130970784425427
0.130930226979009
0.130691165899311
0.130638982764593
0.13055686078963
0.130509632991622
0.130459847570125
0.129808383663945
0.13097160925132
0.130929919753185
0.130695600756836
0.130640269533586
0.130562412529226
0.130521943521773
0.13049891726209
0.129922798478284
0.130972450109726
0.130929459688784
0.130699135543462
0.13064064413772
0.130565994959668
0.130532270297453
0.130530732029842
0.130030927322742
0.13097333570229
0.130928796853271
0.130701984205691
0.130641754132351
0.130568618612994
0.130539364038679
0.130556111015014
0.130116638373579
0.130974226169537
0.13092789172343
0.130704265976195
0.130642955761244
0.130570956645521
0.130545871189758
0.130575666282767
0.130176628468355
0.130975136743811
0.130926679237568
0.130706100038965
0.13064391680924
0.130573019026368
0.130550225116266
0.130590960081293
0.130218785835025
0.130976077273238
0.130925162258169
0.130707657746059
0.130644694225662
0.13057468380664
0.130553815272509
0.130600848604868
0.130256829819067
0.130977052600408
0.130923435159715
0.130709085242718
0.13064545111398
0.130577581489538
0.130557480145266
0.130608883999374
0.130282582914567
0.130978061810397
0.130921599342202
0.130710608476149
0.130646691587518
0.130582421136474
0.130561460124633
0.130609121431284
0.130316721280647
0.130979102763594
0.130919713683502
0.130712312198453
0.130648064161224
0.130588765680062
0.130566354608873
0.130609600949311
0.130358412401911
0.130980173135611
0.130917760785368
0.130714339199016
0.130650196252329
0.130595308859727
0.1305725160252
0.130612838956967
0.130389526826845
0.130981270331588
0.13091566594578
0.130716640328685
0.13065290858459
0.130600577130007
0.130578377713767
0.130614716062497
0.130407916917554
0.13098239118018
0.130913301403446
0.130719185681159
0.130655477549362
0.130603900808604
0.130582517398351
0.130616274709567
0.1304186768603
0.130983529851802
0.130910638241914
0.130721193662837
0.130657623083777
0.130605557974026
0.130584332179088
0.13061622123891
0.130426457205776
0.130984683449692
0.130907677098428
0.130722728044006
0.130659429694151
0.13060650702464
0.130585221177244
0.130615130169262
0.130432599836215
0.130985848657841
0.130904497641702
0.130723892356069
0.130660862410721
0.130607406403785
0.130585216239343
0.130612963358631
0.130438068680713
0.130987022703785
0.130901176360934
0.130724850965175
0.130661788362835
0.130608269507229
0.130584577871044
0.130610167076515
0.130442808387971
0.130988202170515
0.130897762620227
0.130725778449245
0.130662203441283
0.130609042833928
0.130583282136688
0.130607006604693
0.130446641110694
0.130989381657741
0.130894297087905
0.13072663609673
0.130662383579995
0.130609697232403
0.130582334720249
0.130603731427284
0.130449556371595
0.13099055657258
0.130890803849855
0.130727425740619
0.130662482682895
0.130610201646715
0.130581947602868
0.130599430189633
0.130451614832718
0.130991721731856
0.130887292987174
0.130728181355961
0.130662431594095
0.130610497709577
0.130581403798672
0.130593080970869
0.130452901880149
0.13099287094975
0.130883771590496
0.130728929119905
0.130662205944383
0.130610566692057
0.130580246431255
0.130585331283827
0.130453345234907
0.130993996541324
0.130880253840281
0.130729655798817
0.13066217405573
0.13061040801621
0.13057841627729
0.130577177244673
0.130452886503212
0.130995091227185
0.130876743179101
0.130730378892276
0.130662074169415
0.130610018089085
0.130576091846124
0.130568966259987
0.130451798942628
0.130996146452887
0.130873254847426
0.130731074622202
0.130661943369819
0.130609384639822
0.130573333268244
0.130560050194293
0.130447767159602
0.130997154921581
0.130869800282358
0.130731746616561
0.130661592894471
0.130608323614626
0.130570157338596
0.130551945741161
0.130440463116945
0.130998109855856
0.130866399030322
0.130732372508152
0.130661011770293
0.130607203568163
0.130566646361709
0.130543688459612
0.130433364118634
0.13099900642538
0.130863072909657
0.130732947804193
0.130660384537241
0.130605710143155
0.130563158407027
0.130535454097234
0.1304247022953
0.130999843720479
0.130859847476972
0.130733463393756
0.130659770590697
0.130604113784421
0.130559726672833
0.130527135673682
0.130414726543055
0.131000626551902
0.130856752635924
0.130733917270825
0.130659171264924
0.130602202258122
0.130556161589664
0.130518527045157
0.130403866380236
0.131001369669735
0.130853812425147
0.130734311855249
0.130658528095367
0.130600566754067
0.130552515694119
0.130509284103147
0.130393532044964
0.131002101440515
0.130851044155983
0.130734638528503
0.13065783024804
0.130598445988467
0.13054857354627
0.130499585601914
0.13038317898777
0.131002866520966
0.130848456828896
0.130734907414568
0.130657027672917
0.130596627756417
0.130544328833193
0.130489857922163
0.13037227111878
0.131003724841692
0.130846049783887
0.130735100202663
0.130656125103132
0.130594408042314
0.130539821777896
0.130479973209349
0.130360624596708
0.131004733043146
0.130843792102058
0.130735229291242
0.130655147604358
0.13059206753236
0.130535055224842
0.130469979906542
0.130348317959814
0.131005888496903
0.130841669469328
0.130735269428846
0.130654094319313
0.130589548686738
0.130530024069048
0.130459829350758
0.130335455029448
0.131007075952109
0.130839622379262
0.130735202569989
0.130652991453909
0.130586896623633
0.130524729954773
0.130449509190845
0.130322150305869
0.13100803369047
0.130837608854581
0.13073504058646
0.130651770591823
0.130584070043865
0.130519177185219
0.130439010211361
0.130308448982484
0.131008517609438
0.130835559742051
0.130734769137719
0.130651200564408
0.130581071782274
0.130513339302142
0.130428299127991
0.130294378122466
0.131008880401072
0.130833229894466
0.130734354652571
0.13065057029705
0.130577978914672
0.13050732179334
0.13041738140522
0.130279938482661
0.131009201815019
0.130830982978016
0.130734013834502
0.130649828506466
0.130574722589202
0.130501087726461
0.130406256604441
0.130265148294351
0.131009494185581
0.130828791981689
0.13073343904688
0.130648683417354
0.130571282191509
0.130494623362638
0.130394926652648
0.13025003648644
0.13100975954895
0.13082665200146
0.130732796241761
0.130647327394647
0.130567657317998
0.130487911163125
0.130383388837151
0.130234649654991
0.131009994832706
0.13082458885374
0.130732031340521
0.13064571287363
0.130563887285685
0.130480974043607
0.130371657017851
0.130219054545002
0.131010206686689
0.130822588475881
0.130731166588437
0.130643765996731
0.130559961377301
0.130473822940832
0.130359764644963
0.130203338220013
0.131010395959368
0.130820652201175
0.130730207265684
0.130641655397202
0.130555869419116
0.130466447412525
0.130347740493706
0.130187498339551
0.131010565460164
0.13081877724162
0.130729161549582
0.130639412904159
0.130551636128945
0.130458873276686
0.130335622047609
0.130171516207536
0.131010717705779
0.130816961925165
0.130728031803373
0.130637047449088
0.130547262099148
0.130451116616873
0.130323462700644
0.13015547302494
0.131010854931032
0.13081520406703
0.130726823038255
0.130634571525523
0.130542762584328
0.130443198103138
0.130311320796362
0.130139417639369
0.131010979184772
0.130813501996039
0.130725541623181
0.130631994021917
0.130538153197122
0.130435143988676
0.130299263614716
0.130123401551995
0.131011092321399
0.13081185437452
0.130724194736956
0.130629325891945
0.130533452705711
0.130426989969876
0.130287358551212
0.130107502151845
0.131011195990151
0.130810260255913
0.130722790245152
0.130626580278346
0.130528683408009
0.130418782298997
0.130275664555864
0.130091763489401
0.131011291670778
0.130808719288751
0.13072133658402
0.130623772355812
0.130523871745876
0.130410578683446
0.130264214655343
0.130076091769596
0.13101138069573
0.13080723208373
0.130719843252391
0.13062091948463
0.130519048197768
0.130402440831782
0.130253052577806
0.130060655675066
0.131011464261384
0.130805800689541
0.130718321538724
0.130618041854899
0.130514248138882
0.130394436401881
0.130242224028465
0.130045543127083
0.131011543412418
0.130804429080073
0.13071678530373
0.130615163538602
0.130509512579082
0.130386637801796
0.130231786081032
0.130030842088441
0.13101161897694
0.130803123550399
0.130715251801947
0.130612313736102
0.130504888808907
0.130379122061288
0.130221809821136
0.130016668452833
0.131011691452419
0.130801892955073
0.130713742610982
0.130609528397856
0.130500430680313
0.130371968041289
0.130212404811565
0.130003264518869
0.131011760874063
0.130800748817476
0.13071228435994
0.13060685180068
0.130496200201782
0.130365264191407
0.130203685755579
0.129990781865118
0.131011826701907
0.130799705336494
0.130710908787659
0.130604337463694
0.130492270037383
0.130359110970058
0.130195762000802
0.129979378329999
0.131011887721906
0.130798779372643
0.130709652277886
0.130602048535871
0.130488726275028
0.130353623152525
0.130188759219325
0.129969254098445
0.131011941951325
0.130797991077273
0.130708556090217
0.130600057825584
0.13048566884943
0.130348929343733
0.130182810268191
0.129960620131982
0.131011987150997
0.13079736374312
0.13070766427925
0.130598439308518
0.130483194063366
0.130345149592315
0.130178032922697
0.129953681321819
0.131012020770183
0.130796910761453
0.130707003806399
0.130597239062199
0.130481352669836
0.130342334473387
0.130174460936757
0.129948464508058
0.131012039824902
0.130796648506309
0.130706607017394
0.130596525218314
0.130480289133361
0.13034073773722
0.130172502922271
0.129945555260657
0.125146693579121
0.1238606658768
0.12296602551627
0.122199975218363
0.121503740977457
0.120804805778404
0.120093920819481
0.119366770635362
0.1186209884903
0.117855200043933
0.117067910140651
0.116255999291836
0.11541703659483
0.11454603112202
0.113639405456157
0.112690740468452
0.111693834767628
0.110639723099211
0.109523671816422
0.108338345418672
0.107075020131308
0.105721571904722
0.10426106236403
0.102668769371783
0.100909375376145
0.098927495193523
0.0966306745710283
0.0938133963359308
0.0899993541267705
0.0859626737794912
0.125193556724846
0.123889108440618
0.123006705179213
0.122245833664668
0.121550803754442
0.120852565994614
0.120142193108184
0.119415445400902
0.118670073667116
0.117904777512454
0.117118071559242
0.116306789314981
0.115468577370729
0.114598445611614
0.113692813751223
0.112745244981262
0.111749552545928
0.110696773093265
0.109582188593622
0.108398487968929
0.107136982711725
0.105785592183461
0.104327437632402
0.102737882230025
0.100981748044446
0.0990038766099436
0.0967122881705571
0.0939031746445524
0.0901336487003826
0.0861447130331981
0.125279033519791
0.123942037389853
0.123087343929879
0.122338880650836
0.121646096140331
0.120949081094357
0.120239584658532
0.11951356624868
0.118768971348496
0.118004637727373
0.117219057457479
0.116408984761918
0.115572239735918
0.114703795881221
0.113800080358019
0.112854647556503
0.1118613151
0.110811124539455
0.109699389464574
0.108518841676971
0.107260859665305
0.105913446334613
0.104459839728737
0.102875568220484
0.101125721990861
0.0991555608996784
0.0968741708328078
0.0940824051464556
0.0903930210194382
0.0863557760932275
0.1253946833604
0.124040367317156
0.12319526685644
0.122457399762285
0.121767201336113
0.121071449684162
0.120362889472581
0.119637636205032
0.118893884519481
0.11813065794512
0.117346351360392
0.116537701442171
0.115702638849717
0.114836180152467
0.113934716398747
0.112991780385556
0.112001211519296
0.110954059332688
0.109845669214538
0.108668825443077
0.107414982908183
0.106072241567198
0.104623973993378
0.103045901295659
0.101303415549942
0.0993422415368631
0.0970727665925875
0.0943012511075628
0.0906846674766456
0.0865674880495216
0.125531260642503
0.124153133581963
0.123311821503752
0.122583510904313
0.121895626594054
0.121200865645196
0.120493068082422
0.119768467113871
0.119025504416854
0.118263362563792
0.117480305933607
0.116673046261768
0.115839682944045
0.114975210364653
0.114076008110954
0.113135593093426
0.112147815984389
0.111103738120195
0.109998737135516
0.108825648706599
0.107576004123999
0.106238001635585
0.104795150764049
0.103223368723278
0.101488349251238
0.0995362827658243
0.097278933246165
0.0945282966519455
0.0909605388525144
0.0867728263931515
0.125678911017873
0.124274891249126
0.12342821095207
0.122708020025438
0.12202208911768
0.121328039642692
0.120620824497949
0.119896753143768
0.119154506372605
0.11839337201112
0.117611472822111
0.116805539118189
0.115973786979179
0.115111218059222
0.114214186787644
0.113276193451347
0.112291103326583
0.111249991711574
0.110148266443442
0.108978813020088
0.107733235574482
0.106399827183196
0.104962229421541
0.103396549272963
0.101668767248152
0.0997255233463432
0.0974799517959418
0.0947493206237095
0.091216581434696
0.086972605751671
0.125824956013837
0.124387716165259
0.123541619034523
0.122829583263242
0.1221452330183
0.121451655781263
0.120744855694983
0.12002121599971
0.119279635330783
0.118519443207098
0.117738630145962
0.11693396252581
0.116103758912372
0.1152430214512
0.1143480839423
0.113412432824903
0.112429945343428
0.111391712234189
0.110293171158318
0.109127255096876
0.107885638052849
0.106556704772356
0.105124224769743
0.103564488752827
0.101843752400583
0.0999090935125143
0.0976749965091498
0.0949636163062265
0.0914588850713685
0.087169375576443
0.125939460617469
0.124486337384816
0.123652225344541
0.122948465759195
0.122265398112547
0.121572077201493
0.120865544164018
0.12014225633688
0.119401296990256
0.118641990888026
0.117862204567531
0.117058757131469
0.116230047561248
0.115371084447664
0.114478179753157
0.11354480702833
0.112564855771181
0.111529432952862
0.110434005638837
0.109271552549867
0.108033814910496
0.106709266250797
0.10528180015067
0.103727885370146
0.10201404265715
0.100087776326974
0.0978648878742322
0.0951720135952918
0.0916923868569199
0.087365110604852
0.12601116481993
0.124552875520859
0.123760740423798
0.123065612831247
0.122383493606339
0.121690197843628
0.120983806410706
0.120260798315719
0.119520412929726
0.118761940203719
0.117983133010207
0.117180864296251
0.116353605079711
0.115496369319629
0.114605448933719
0.113674305757637
0.112696840952061
0.111664178174338
0.110571813797316
0.109412770635132
0.108178854871453
0.106858626307126
0.10543609927728
0.103887915574546
0.102180852767799
0.100262831062398
0.0980509303481187
0.0953759359884988
0.0919198643297871
0.0875614021214169
0.12606049691743
0.124591091038721
0.123868204277128
0.123181756973167
0.122500223886562
0.121806750907914
0.121100363892812
0.120377563465782
0.119637699546688
0.118880008604821
0.118102136854316
0.117301008142437
0.116475158670802
0.115619608556939
0.114730630535713
0.113801675469938
0.112826656017624
0.111796712687082
0.110707371049194
0.109551696547177
0.108321558228305
0.107005599807225
0.105587953243076
0.1040454286619
0.102345052912814
0.100435150981461
0.0982340367357438
0.095576361792168
0.0921428695799684
0.0877593543846272
0.12609337552743
0.124624355184578
0.12397568595385
0.123297523200786
0.122616184867729
0.121922319076991
0.121215799189345
0.120493129286736
0.119753729533394
0.118996768236226
0.118219788957439
0.117419761438148
0.116595282399968
0.115741378308597
0.1148543039176
0.113927499755899
0.112954889670912
0.111927630973109
0.110841278325257
0.109688938397707
0.108462541107341
0.107150811800124
0.105737997017683
0.104201070754027
0.102507301875902
0.100605408411649
0.0984148892482038
0.0957740200262451
0.0923623491751708
0.0879591694821634
0.126132074343446
0.124667935221014
0.124084135655205
0.123413355443882
0.122731829494712
0.122037348316538
0.121330549936941
0.120607927074172
0.119868929052575
0.119112643087144
0.118336512461013
0.117537546054684
0.116714397439747
0.115862100070367
0.114976891726218
0.114052203084347
0.113081968884708
0.112057363000436
0.110973969024072
0.109824933499355
0.108602245256634
0.107294708993018
0.105886682756803
0.104355300074292
0.102668064504768
0.100774074533839
0.0985939608622348
0.0959694044026745
0.0925790239195188
0.0881604471395119
0.126173065882148
0.124739867709021
0.124194327896421
0.123529591877605
0.12284752544027
0.12215219390974
0.12144496418186
0.120722297441471
0.119983632906695
0.119227964203955
0.118452636897925
0.117654688998259
0.116832829087051
0.115982098177394
0.115098718051388
0.114176109911143
0.113208219017049
0.112186235392512
0.11110577133135
0.109960011914963
0.108741002937203
0.107437626130109
0.106034347881437
0.104508456976537
0.102827684147337
0.100941494828244
0.0987715945523793
0.0961628658345216
0.0927934446344195
0.088362652670845
0.126223892934459
0.124838876622143
0.124306833276349
0.123646540571438
0.122963575918632
0.122267146080775
0.12155932409648
0.120836514797424
0.120098108945123
0.119342994303453
0.118568423023433
0.117771447645136
0.116950832150964
0.116101625586965
0.115220034616625
0.114299471245744
0.113333890809119
0.112314498902826
0.111236936213837
0.11009442502809
0.108879066138497
0.107579815930051
0.1061812458406
0.104660795617528
0.102986415386537
0.101107923081898
0.0989480386921428
0.0963546525645877
0.093005970084784
0.0885652876872006
0.126294353539376
0.124948957506099
0.124422079311021
0.123764504153398
0.123080242565919
0.122382450414825
0.121673867970176
0.120950809430202
0.120212580064097
0.11945794994028
0.118684084885738
0.117888031924567
0.117068613325477
0.116220886377623
0.115341043457407
0.114422487560223
0.113459183552351
0.11244235186305
0.111367661177095
0.110228369643301
0.109016631058276
0.107721473997119
0.1063275715409
0.104812509947878
0.103144450737626
0.101273548970995
0.0991234757648036
0.0965449437814055
0.0932167817421898
0.0887685949019615
0.126390970436287
0.125063027112382
0.124540429588573
0.123883762176894
0.12319775845876
0.122498320264794
0.121788801980568
0.121065380419953
0.120327237024629
0.119573014742283
0.118799802570167
0.118004617365729
0.117186344321752
0.116340048980558
0.115461910273023
0.114545322273765
0.113584258725449
0.112569953988976
0.111498104260489
0.110362002190809
0.109153852545652
0.107862753530138
0.106473476360262
0.10496374908916
0.103301936452618
0.101438514398062
0.0992980393404684
0.0967338690240719
0.0934258394755364
0.0889722083252454
0.126510082481124
0.125183263958577
0.124662239091965
0.124004570944401
0.123316340073986
0.122614945454299
0.121904306383119
0.121180405254526
0.12044224788575
0.119688349419326
0.118915731411639
0.118121354667861
0.117304171501651
0.116459255846581
0.115582774153575
0.114668111555871
0.113709249887443
0.112697436375453
0.111628394146432
0.110495448966401
0.109290854487237
0.108003775879389
0.106619078880011
0.105114628323835
0.103458983799149
0.101602925138192
0.0994718261525521
0.0969215160052772
0.0936330944800839
0.0891759184048565
0.126646729152862
0.12531020817699
0.124787833063195
0.124127172465973
0.123436195729417
0.122732495327885
0.122020540570365
0.121296046480613
0.120557764486939
0.119804098507765
0.119032008368637
0.118238376273917
0.117422222479289
0.116578630064976
0.115703754237366
0.114790971030642
0.113834269439437
0.112824908324512
0.111758637065445
0.11062881312389
0.109427736901444
0.108144637755442
0.106764472225296
0.105265236608249
0.103615676777597
0.101766858815359
0.0996449043745085
0.0971079369353322
0.0938387055669232
0.0893795945554979
0.126801400413122
0.125453548684876
0.124917552317226
0.124251793271334
0.123557525411474
0.122851125129781
0.122137651883232
0.121412456658335
0.120673927411459
0.119920394836047
0.119148757172905
0.118355801311446
0.117540611038242
0.116698280282107
0.115824954647784
0.114914000738882
0.113959413620793
0.112952462382426
0.111888921882375
0.110762179820183
0.10956458115149
0.108285416521481
0.106909729455402
0.105415642082795
0.10377207778136
0.101930370753171
0.0998173197507256
0.0972931564207043
0.0940427432227077
0.0895831452092102
0.126973275167403
0.125614793460355
0.125051654353716
0.124378657356871
0.123680514816515
0.122970989200341
0.122255782349618
0.121529781803372
0.120790869733576
0.120037362613875
0.119266092392931
0.118473739419581
0.117659440843594
0.116818304409099
0.11594646821036
0.115037288866397
0.114084766256023
0.113080178112587
0.11201932390184
0.110895620060323
0.109701453839382
0.108426174143527
0.107054907588792
0.105565896186947
0.103928231827593
0.102093498350736
0.099989100206065
0.0974771786426618
0.0942451294596331
0.0897864532777439
0.127161340897934
0.125784305645537
0.12519028097505
0.124507992815297
0.123805331942797
0.12309224398072
0.12237507150076
0.121648163424504
0.120908719786229
0.120155120180346
0.119384122347934
0.118592293958084
0.117778808370972
0.116938792547289
0.116068379378632
0.115160914669779
0.114210401689222
0.113208125043435
0.112149907836304
0.111029193693063
0.109838409835563
0.108566960266273
0.107200050731916
0.105716036857682
0.104084169849479
0.102256264487897
0.10016025944153
0.0976599941799084
0.0944457892455186
0.089989454672041
0.127362280361886
0.125961077818781
0.125333551065401
0.124640023573827
0.123932122328489
0.123215044260163
0.122495658810791
0.121767739183901
0.12102760321545
0.120273782895664
0.119502950786799
0.11871156489269
0.117898805278116
0.117059829375053
0.116190766612397
0.115284950846527
0.114336387154131
0.113336365044475
0.112280730193894
0.111162951816361
0.109975494708876
0.108707814690721
0.107345192587524
0.105866091093793
0.104239911338357
0.10241868026098
0.100330799839084
0.0978415872028817
0.0946446302400027
0.0901921937921463
0.127572231280087
0.12614270951641
0.125481517298908
0.124774981036812
0.124060991545724
0.123339544536434
0.122617686517693
0.121888642652344
0.12114764465919
0.120393465659762
0.119622678489025
0.118831651126527
0.118019520369387
0.117181496178562
0.116313704385124
0.115409465526751
0.114462784760141
0.113464954311878
0.112411841269002
0.111296938779187
0.110112746745856
0.108848769430831
0.107490358536573
0.106016077084938
0.104395466540572
0.102580747259926
0.100500714864313
0.0980219392610375
0.0948415540723239
0.0903946225779643
0.127790798547304
0.126328235010697
0.125634183763351
0.124913081625086
0.124192030540854
0.123465902491689
0.122741302094118
0.122011003328568
0.121268969321486
0.120514284547495
0.11974340718935
0.118952650647881
0.118141041260184
0.117303872654319
0.116437264937566
0.115534524006736
0.114589653215674
0.113593945085969
0.112543286860168
0.11143119390564
0.110250198687127
0.108989850463005
0.107635567424801
0.1061660060403
0.104550838346434
0.102742459529917
0.100669991111596
0.0982010309536036
0.0950364641880018
0.0905966677799803
0.1280147082386
0.12651630758842
0.125791427138123
0.125054476146105
0.124325389948904
0.123594281354952
0.122866659607492
0.122134948095178
0.121391704658946
0.120636357160939
0.119865247619268
0.11907465726124
0.118263455896641
0.117427038566248
0.11656151986239
0.115660190311914
0.114717049376581
0.113723387190268
0.112675109805139
0.111565753031792
0.110387879273191
0.109131079275517
0.107780833149129
0.106315883813763
0.104706023970339
0.102903805317846
0.100838610100754
0.0983788432850611
0.0952292702488843
0.0907981821343203
0.128236059466205
0.126705458644013
0.125952987499926
0.125199246310184
0.124461272659318
0.123724849962061
0.122993919836353
0.122260604136878
0.121515982358335
0.120759804694539
0.119988319801645
0.119197762758861
0.118386854250055
0.117551075282537
0.116686541579157
0.115786528654008
0.114845029685179
0.113853329456846
0.11280735139914
0.111700649922604
0.110525814666243
0.10927247429899
0.107926166114687
0.106465712395619
0.104861016493292
0.103064768676226
0.101006549902638
0.0985553584888584
0.0954198963689076
0.090999011952485
0.128447803760238
0.126894306063689
0.126118480772841
0.125347434790723
0.124599869141758
0.123857781113276
0.12312324972073
0.12238810220809
0.121641940677191
0.120884756301166
0.12011274383908
0.119322065658725
0.118511330446726
0.117676067213954
0.116812404747905
0.115913604832655
0.114973651548902
0.113983821088414
0.112940052746631
0.111835917619109
0.110664029799694
0.109414052265799
0.108071574613857
0.106615491323566
0.105015806321235
0.10322533097779
0.101173786658014
0.0987305606071946
0.0956082495554443
0.0911988704639359
0.128646276652819
0.12708210474227
0.12628742140039
0.125499044467006
0.124741337759964
0.1239932498404
0.123254821777757
0.122517579177769
0.121769727078704
0.121011350414907
0.120238640976953
0.119447672043195
0.118636985403089
0.117802103200455
0.116939187667064
0.116041487621209
0.115102974697914
0.11411491299604
0.113073256086064
0.111971589755516
0.110802549695089
0.109555829534663