/*--------------------------------*- C++ -*----------------------------------*\
  =========                 |
  \\      /  F ield         | OpenFOAM: The Open Source CFD Toolbox
   \\    /   O peration     | Website:  https://openfoam.org
    \\  /    A nd           | Version:  6
     \\/     M anipulation  |
\*---------------------------------------------------------------------------*/
FoamFile
{
    version     2.0;
    format      ascii;
    class       volScalarField;
    location    "0.0052";
    object      rho_0;
}
// * * * * * * * * * * * * * * * * * * * * * * * * * * * * * * * * * * * * * //

dimensions      [1 -3 0 0 0 0 0];

internalField   nonuniform List<scalar> 
18800
(
0.12847470102382
0.126912450535302
0.125737568545164
0.125259231411323
0.124993003441862
0.12486782740501
0.124904538194649
0.124223672054106
0.128544852561169
0.12695665325592
0.125774674640484
0.125293963840844
0.125026050682829
0.124899870447659
0.124929960751075
0.124271775203435
0.128613886630892
0.127069594166192
0.125873796174134
0.125385934712525
0.125113171527886
0.124984310981883
0.124995394480997
0.124345860889472
0.128710360656556
0.127250894455376
0.12603574481031
0.125533218288499
0.125251107730739
0.125112161577834
0.125077053238021
0.12444172358565
0.128751401306374
0.127481249221102
0.126243284411438
0.125717601866591
0.125421155083915
0.125269949942135
0.125180003363417
0.124562070397975
0.128874130745807
0.127740037850054
0.12647644413541
0.12592040540381
0.125605204454624
0.125437723342497
0.125302988358927
0.124721526804224
0.129099903961457
0.128010854605208
0.12672124633642
0.126130467350718
0.125793214579492
0.125608910868566
0.125444640455172
0.124904822150487
0.129326808013534
0.12828113160627
0.126970763004582
0.126343222974515
0.125981511238619
0.125779464718545
0.125601998800036
0.125095415354732
0.129544916945584
0.128542305463098
0.12722182858014
0.126557534286305
0.126169528702544
0.125949709425826
0.12576896133808
0.125280177212739
0.129730626347836
0.128787328376247
0.127473491765322
0.1267736873933
0.126357874022644
0.126119930154956
0.125936580288364
0.12544805445844
0.129845857957399
0.129013811546637
0.127724725576297
0.126992390720086
0.126547492185871
0.126291035063751
0.126102406356475
0.125568975353008
0.129897459415526
0.129220625839255
0.127975466601936
0.127214393122442
0.126739362267697
0.12646369818439
0.126265991931977
0.125662122135413
0.129970449827945
0.129412031948821
0.128223792248894
0.127440292549886
0.12693439979923
0.126638612239597
0.126428775901529
0.125771001084036
0.130085447702071
0.129591144699914
0.128470385001711
0.12767050241883
0.127133430667194
0.12681642754529
0.126592631045439
0.125898656084997
0.130208512006335
0.129763779917873
0.12871171771117
0.127905062938157
0.127337185466811
0.126997813357207
0.126758552304293
0.126038007560856
0.130325323261009
0.129927854097397
0.128950520966019
0.128143755992155
0.127546286476519
0.127183412809751
0.126927800296965
0.126182326874388
0.13042643766075
0.130083722706122
0.129179020054647
0.128385687857367
0.127761225210198
0.127373833459807
0.127100847041437
0.126329443547058
0.130512645931272
0.13022390850705
0.129402384086626
0.128629645313608
0.127982302823099
0.127569640503453
0.127277730291252
0.126479510096477
0.130584995933551
0.130346770339281
0.129605584812603
0.128873138027433
0.128209551574341
0.127771307473765
0.127459164822796
0.126633949777693
0.130645598873359
0.130448819739176
0.129797509875787
0.129113556798467
0.128442567231473
0.127979231242848
0.127645754065215
0.126794961443483
0.1306966460264
0.130534439325561
0.129957164934671
0.12934648356205
0.128680327860161
0.12819355721124
0.127838161554239
0.12696541177149
0.130741977302764
0.130605955437497
0.130099361421007
0.129568345903712
0.128920820125416
0.128414296402387
0.128036983659518
0.127148401378339
0.130784979707384
0.130667940476167
0.130205597229272
0.129774167302071
0.129160832483588
0.12864073882536
0.128242816794953
0.127346066938171
0.130829331301669
0.13072353493368
0.130306431157551
0.129959950120421
0.129395618284557
0.128872047191563
0.128456001673268
0.127556348647594
0.130870374529321
0.13077422337387
0.130406034538854
0.130122647666181
0.129619368090403
0.129105454005969
0.128676784809992
0.127773328900561
0.13090589457561
0.130818840214283
0.130491826190218
0.130257676008049
0.12982580908827
0.129338509575924
0.128904807950449
0.127989964237681
0.13092825611989
0.130856146171627
0.130558269277218
0.130365189396018
0.130008746850363
0.129564422437117
0.129139337516582
0.128201155103664
0.130942031563402
0.130884683740622
0.130609169618596
0.130446274626622
0.130163735600744
0.129778704552585
0.129376706143121
0.128409521347761
0.130952171939055
0.130906099889624
0.130640396214796
0.130504569086997
0.130288002842643
0.129970199366623
0.129610271748409
0.128625331619463
0.130959263799613
0.130919064424081
0.130660294013245
0.130547312142072
0.130381223650432
0.130135305831943
0.129823263806505
0.128846624735639
0.130963738613054
0.13092780026579
0.130667946307697
0.130577017002643
0.13044664780635
0.130264480470491
0.130003324378684
0.129058740416247
0.130966043524302
0.13093067547416
0.13067164037027
0.130598668427606
0.130489189207051
0.13036133290736
0.130148047896381
0.129251007457611
0.130967628225381
0.130930675327547
0.130675509510312
0.130615371458799
0.130517127768503
0.130424632243314
0.130259501049324
0.129418093277831
0.130968839366021
0.130930554637286
0.130680177412136
0.130625798326607
0.130536229945045
0.130465752474162
0.130344643364121
0.129562264723417
0.130969869590156
0.13093042949134
0.130685802449741
0.130633535588732
0.130548647598427
0.130491114741654
0.130409842039408
0.129689649889734
0.130970783551178
0.130930226432466
0.130691164327254
0.130638979795171
0.130556863482227
0.130509632603441
0.130459848331124
0.129808382962853
0.130971608379705
0.130929919283165
0.130695599547939
0.130640245739292
0.130562414307173
0.130521944584545
0.130498917919878
0.129922796218557
0.13097244923705
0.130929459104059
0.130699135931438
0.130640641180883
0.130565991221903
0.130532272384016
0.130530732683394
0.130030924374491
0.130973334826905
0.130928796137988
0.13070198514077
0.130641761731112
0.13056861660241
0.130539364634753
0.130556111617646
0.1301166367455
0.130974225291108
0.130927890978947
0.130704266032409
0.130642962215434
0.130570958428015
0.13054587044241
0.130575666800724
0.130176627360316
0.130975135862705
0.130926678549285
0.130706099213628
0.130643918722103
0.130573020949924
0.13055022552856
0.130590960568744
0.130218785068441
0.130976076390335
0.130925161634582
0.130707656765421
0.130644693044047
0.130574684569394
0.130553816284141
0.130600849203492
0.130256829044975
0.130977051716304
0.130923434549669
0.130709084768678
0.13064544900236
0.130577580739606
0.13055748119272
0.13060888445754
0.130282582476031
0.130978060925167
0.130921598690894
0.130710608538609
0.130646690070845
0.130582419702397
0.130561460594913
0.130609121924953
0.130316720724661
0.13097910187727
0.130919712981586
0.13071231231139
0.13064806420543
0.130588765312357
0.130566354285144
0.130609601404498
0.130358411548173
0.130980172248493
0.13091776007537
0.130714338925199
0.130650196637241
0.130595308966822
0.130572515873019
0.130612839349249
0.130389526152725
0.13098126944391
0.130915665271394
0.130716639737369
0.130652908528472
0.130600576987282
0.130578378160905
0.13061471642007
0.130407916329837
0.130982390291819
0.130913300760042
0.130719185245166
0.130655477013611
0.130603900609332
0.130582517621598
0.1306162749796
0.130418676284984
0.130983528962432
0.130910637584509
0.13072119348052
0.130657622553719
0.130605557908722
0.130584332298118
0.13061622142267
0.130426456639797
0.130984682559002
0.130907676418664
0.130722727803464
0.130659429616338
0.130606507086102
0.130585221298421
0.130615130304909
0.13043259923907
0.130985847765726
0.13090449694774
0.130723891972486
0.130660862317123
0.130607406521098
0.130585216386551
0.130612963456423
0.130438068091358
0.130987021810086
0.130901175656032
0.130724850588508
0.130661788141981
0.130608269650186
0.130584578013214
0.130610167134287
0.130442807828422
0.130988201274875
0.130897761903187
0.130725778106609
0.13066220326241
0.130609043004174
0.130583282275839
0.130607006626791
0.130446640581975
0.130989380759928
0.130894296357491
0.130726635735302
0.130662383438368
0.130609697426766
0.130582334857331
0.130603731455209
0.130449555891157
0.130990555672356
0.130890803106461
0.130727425342553
0.130662482542907
0.130610201852584
0.130581947747922
0.130599430391024
0.13045161441861
0.130991720829018
0.130887292231016
0.130728180941738
0.130662431461805
0.130610497918615
0.130581403963472
0.130593081344893
0.130452901549103
0.130992870044043
0.130883770822057
0.130728928700654
0.130662205828845
0.130610566902312
0.13058024663785
0.130585331695628
0.130453344996029
0.130993995632594
0.130880253059447
0.130729655366675
0.130662173946958
0.130610408214622
0.130578416535398
0.130577177616223
0.130452886354895
0.130995090315172
0.130876742386076
0.130730378445302
0.130662074051756
0.130610018260911
0.130576092138864
0.130568966607531
0.130451798834156
0.130996145537495
0.130873254041328
0.130731074163462
0.130661943241403
0.13060938478012
0.130573333580383
0.130560050696444
0.130447766980366
0.130997154002662
0.130869799462858
0.130731746145811
0.130661592733762
0.130608323735527
0.13057015763636
0.130551945952594
0.130440462912604
0.130998108933458
0.13086639819649
0.130732372023833
0.1306610115887
0.130607203662064
0.130566646639986
0.13054368865116
0.130433363890626
0.130999005499591
0.13086307206114
0.130732947305
0.130660384340118
0.130605710220441
0.13056315866248
0.130535454232595
0.130424702037033
0.130999842791597
0.130859846613431
0.130733462878588
0.130659770377556
0.130604113849708
0.130559726903415
0.130527135782577
0.13041472625569
0.131000625620369
0.130856751757627
0.130733916738887
0.130659171038576
0.130602202303414
0.130556161793099
0.130518527125777
0.130403866054956
0.131001368736236
0.130853811532394
0.130734311305978
0.130658527841376
0.130600566781305
0.13055251586582
0.130509284196881
0.130393531689499
0.131002100505994
0.130851043249198
0.130734637961844
0.130657829944715
0.130598445977546
0.130548573684429
0.130499585724352
0.130383178623154
0.131002865586554
0.130848455909034
0.130734906830994
0.130657027310053
0.130596627695237
0.130544328930457
0.130489858038069
0.130372270782692
0.131003723908575
0.130846048853207
0.130735099598357
0.130656124690954
0.130594407924661
0.130539821829288
0.130479973328237
0.130360624286491
0.131004732112166
0.130843791162718
0.130735228670057
0.130655147166748
0.130592067362701
0.130535055223963
0.130469980003241
0.130348317681877
0.131005887568415
0.130841668530094
0.130735268776856
0.1306540938609
0.130589548466785
0.130530024009161
0.130459829415769
0.130335454771269
0.131007075026315
0.130839621434431
0.13073520187933
0.130652990979482
0.130586896353405
0.130524729832245
0.130449509211046
0.130322150057712
0.131008032767691
0.130837607912601
0.130735039865273
0.130651770060141
0.130584069706314
0.130519176992549
0.130439010180504
0.130308448734819
0.131008516694966
0.130835558815682
0.130734768382381
0.130651200103406
0.130581071378429
0.130513339041241
0.130428299046145
0.130294377870441
0.131008879496754
0.130833228965029
0.130734353862108
0.130650569774481
0.130577978434501
0.130507321460243
0.130417381274132
0.130279938221983
0.131009200922243
0.130830982049448
0.130734013003106
0.130649827890902
0.130574722025216
0.130501087321927
0.13040625642997
0.130265148021489
0.131009493305812
0.130828791053842
0.130733438178517
0.130648682710629
0.13057128154063
0.13049462288611
0.130394926438168
0.130250036198355
0.131009758683836
0.130826651078417
0.130732795337484
0.130647326593132
0.130567656578512
0.130487910616074
0.130383388584238
0.130234649347623
0.131009993984405
0.130824587937657
0.130732030406228
0.130645711989155
0.13056388645662
0.130480973426431
0.130371656725947
0.130219054211937
0.131010205856323
0.130822587569592
0.130731165630324
0.130643765020917
0.130559960459519
0.130473822253807
0.130359764308293
0.130203337849964
0.131010395147972
0.130820651306411
0.13073020628824
0.130641654366958
0.130555868430756
0.130466446669075
0.130347740111219
0.130187497921401
0.131010564668115
0.130818776359152
0.130729160556834
0.130639411831871
0.130551635085073
0.130458872485138
0.130335621614516
0.130171515727505
0.131010716932893
0.130816961054685
0.130728030799536
0.130637046348459
0.13054726101956
0.130451115788435
0.130323462210193
0.13015547246912
0.13101085417666
0.13081520320783
0.130726822029302
0.130634570408572
0.130542761484963
0.130443197244726
0.130311320239362
0.13013941699796
0.131010978447957
0.130813501147369
0.130725540616182
0.13063199290129
0.130538152092268
0.130435143104775
0.130299262983468
0.130123400820042
0.131011091600989
0.130811853535563
0.130724193738464
0.130629324780091
0.130533451608974
0.130426989065125
0.130287357842679
0.13010750133281
0.131011195284942
0.130810259425858
0.130722789259449
0.130626579184583
0.130528682329761
0.130418781376722
0.130275663772345
0.130091762600109
0.131011290979699
0.130808718467198
0.130721335612979
0.130623771283952
0.130523870689176
0.130410577741699
0.130264213797051
0.13007609080999
0.131011380018035
0.130807231271417
0.130719842296874
0.130620918432544
0.130519047155545
0.130402439859979
0.130253051640704
0.130060654652352
0.131011463596806
0.130805799889026
0.130718320600112
0.130618040815776
0.130514247094449
0.130394435381391
0.130242223004862
0.13004554204584
0.131011542761179
0.130804428295988
0.130716784384722
0.130615162502685
0.130509511508595
0.130386636708171
0.130231784960624
0.130030840952738
0.131011618339605
0.130803122789037
0.130715250907064
0.130612312692873
0.13050488768451
0.130379120866385
0.130221808592052
0.130016667264326
0.131011690829634
0.130801892223436
0.130713741746962
0.130609527338921
0.130500429474405
0.130371966716444
0.130212403461316
0.13000326327575
0.131011760266289
0.130800748122094
0.130712283535097
0.130606850722108
0.130496198892408
0.130365262712649
0.130203684275164
0.12999078056684
0.131011826109209
0.130799704682256
0.130710908009529
0.130604336366205
0.13049226861353
0.130359109325184
0.130195760387229
0.129979376975514
0.131011887143789
0.130798778761754
0.130709651550308
0.13060204742304
0.130488724739613
0.130353621346928
0.130188757478975
0.129969252686796
0.13101194138661
0.130797990508613
0.130708555411996
0.130600056701426
0.130485667217098
0.130348927399998
0.130182808418094
0.129960618663985
0.131011986597755
0.130797363211887
0.130707663644608
0.130598438175997
0.130483192354165
0.130345147542629
0.130178030988325
0.129953679803387
0.131012020225403
0.130796910259493
0.130707003205915
0.130597237922761
0.130481350903231
0.13034233234898
0.130174458944304
0.129948462949351
0.131012039285507
0.130796648023356
0.130706606442698
0.130596524075494
0.130480287325516
0.130340735562384
0.1301725008979
0.129945553683068
0.12514670771118
0.123860742732891
0.122966053236752
0.122199991880256
0.121503755218637
0.120804818966917
0.120093933597866
0.119366783711509
0.118621002666291
0.117855216422188
0.11706793028343
0.116256024232567
0.115417066703238
0.114546065925403
0.113639442840318
0.112690777489069
0.111693869015763
0.110639753518164
0.109523698237313
0.108338369177834
0.107075042617896
0.10572159430682
0.10426108523404
0.102668792894242
0.100909399231507
0.0989275192763897
0.0966306991479106
0.0938134215433631
0.089999379250658
0.085962698033922
0.125193569893985
0.123889171724783
0.123006731974206
0.122245850287978
0.121550817988941
0.120852579179128
0.120142205882919
0.119415458469209
0.118670087836357
0.117904793891941
0.11711809168537
0.116306814256846
0.115468607492301
0.114598480444407
0.113692851169465
0.112745282036485
0.111749586821477
0.110696803531761
0.10958221502804
0.108398511740744
0.107137005214344
0.105785614607545
0.104327460530212
0.102737905785356
0.10098177193647
0.0990039007326559
0.0967123127907986
0.0939031999003896
0.090133673892127
0.0861447372054964
0.125279044568614
0.123942075890095
0.123087368641982
0.122338897162871
0.121646110333921
0.120949094241843
0.120239597396267
0.119513579270631
0.11876898547256
0.118004654075358
0.117219077522479
0.116409009664242
0.115572269849712
0.114703830728308
0.113800117810926
0.11285468464724
0.111861349399086
0.110811154987493
0.109699415896424
0.108518865442038
0.107260882164056
0.105913468763964
0.104459862642707
0.102875591802707
0.101125745917588
0.0991555850635456
0.0968741954997364
0.0940824304584943
0.0903930462976661
0.0863558000839131
0.125394692734705
0.124040391005189
0.123195289066139
0.122457416081089
0.121767215434073
0.121071462737708
0.120362902112413
0.119637649115232
0.118893898538168
0.11813067420222
0.117346371304
0.116537726255623
0.115702668903508
0.114836214971099
0.11393475383555
0.112991817461049
0.11200124578951
0.11095408973653
0.109845695590547
0.108668849149714
0.107415005354239
0.106072263955223
0.104623996878038
0.103045924859427
0.101303439466341
0.099342265696361
0.0970727912584022
0.0943012764303301
0.0906846927943778
0.0865675118202107
0.12553126891165
0.124153142880508
0.123311841275053
0.122583526969038
0.121895640544948
0.121200878554108
0.120493080569575
0.119768479858452
0.119025518282941
0.118263378674396
0.117480325710351
0.11667307093358
0.115839712891371
0.114975245100949
0.114076045480453
0.113135630100694
0.112147850173318
0.11110376842847
0.109998763405516
0.108825672305002
0.1075760264674
0.106238023932116
0.104795173569319
0.103223392218743
0.101488373107645
0.0995363068710484
0.0972789578594192
0.0945283219349564
0.0909605641648537
0.0867728499327531
0.125678919195596
0.124274896573122
0.123428228887527
0.122708035799155
0.122022102880831
0.121328052369289
0.1206208367922
0.119896765683293
0.119154520052463
0.11839338793662
0.117611492398806
0.116805563616545
0.115973816782796
0.115111252674558
0.114214224046068
0.113276230345745
0.112291137390422
0.111250021882221
0.110148292567801
0.108978836472091
0.107733257777875
0.106399849350709
0.104962252109139
0.103396572660861
0.101668791004746
0.0997255473567557
0.0974799763152356
0.0947493458258178
0.0912166067062798
0.0869726290610119
0.125824965840196
0.124387719705501
0.123541635639973
0.122829598720911
0.122145246559014
0.121451668295917
0.120744867767624
0.120021228307169
0.119279648797255
0.118519458917866
0.117738649499774
0.116933986823035
0.116103788544143
0.115243055913286
0.114348121056166
0.113412469572022
0.112429979248477
0.111391742234925
0.110293197106373
0.109127278372456
0.107885660086156
0.106556726780265
0.105124247308442
0.103564512001359
0.1018437760252
0.0999091173955722
0.0976750209015888
0.0949636413946827
0.0914589102728122
0.0871693986619157
0.125939473886613
0.12448634148925
0.123652241069228
0.122948480879464
0.122265411397182
0.121572089476009
0.120865555990286
0.120142268390838
0.119401310218111
0.118642006359172
0.117862223678144
0.117058781203551
0.116230076995496
0.115371118728569
0.114478216692369
0.113544843597542
0.112564889487338
0.111529462754824
0.110434031383247
0.109271575622303
0.10803383674704
0.10670928807199
0.105281822512667
0.103727908450839
0.102014066120905
0.100087800053424
0.0978649121103066
0.0951720385405202
0.0916924119620503
0.0873651334764475
0.126011182446643
0.124552883177144
0.123760755658097
0.123065627595074
0.122383506600712
0.121690209848963
0.120983817966559
0.12026081009552
0.119520425894293
0.118761955411541
0.117983151858208
0.117180888118478
0.116353634291471
0.115496403392096
0.114605485669747
0.113674342120005
0.112696874450829
0.111664207750103
0.110571839311919
0.109412793478642
0.108178876485321
0.106858647915225
0.105436121435567
0.103887938459811
0.102180876042769
0.100262854604037
0.0980509543994012
0.0953759607616435
0.0919198893109172
0.0875614247908218
0.126060519123287
0.124591102535735
0.12386821929966
0.123181771359686
0.122500236560298
0.121806762616022
0.121100375153196
0.120377574949029
0.119637712223285
0.1188800235258
0.118102155420333
0.117301031689195
0.116475187634645
0.115619642393828
0.114730667040204
0.113801711596892
0.11282668927083
0.111796742009479
0.110707396307999
0.109551719136062
0.108321579593633
0.107005621175902
0.105587975170705
0.10404545132418
0.102345075971136
0.100435174310178
0.0982340605738905
0.0955763863643262
0.0921428944076607
0.0877593768619508
0.126093397665208
0.124624367859489
0.123975700833737
0.123297537183036
0.122616197192487
0.121922330460173
0.121215810128609
0.120493140449668
0.119753741897037
0.118996782846504
0.118219807221692
0.117419784682539
0.116595311089745
0.115741411882286
0.114854340162016
0.113927535618824
0.112954922650325
0.111927660014854
0.110841303302083
0.109688960705976
0.108462562197902
0.107150832902669
0.105738018687327
0.104201093165368
0.102507324689348
0.100605431498997
0.0984149128445176
0.0957740443678039
0.092362373819024
0.087959191771593
0.126132096797463
0.124667949684448
0.124084150324312
0.1234133689855
0.122731841441582
0.122037359346424
0.121330560529766
0.120607937892085
0.119868941077812
0.119112657362413
0.118336530402831
0.117537568968798
0.116714425828468
0.115862133352629
0.114976927681596
0.114052238654336
0.113082001561804
0.112057391733929
0.11097399369238
0.109824955500581
0.108602266045715
0.107294729802207
0.105886704140617
0.104355322206192
0.102668087044561
0.100774097350829
0.0985939841874602
0.0959694284831425
0.0925790483477362
0.08816046923658
0.126173088448989
0.124739883814355
0.124194342258099
0.123529604942837
0.122847536979378
0.122152204557169
0.121444974403317
0.120722307888856
0.119983644567507
0.119227978119338
0.118452654495035
0.117654711553623
0.116832857146916
0.115982131139267
0.115098753688227
0.114176145158876
0.113208251362897
0.112186263789723
0.11110579566414
0.109960033582185
0.108741023397511
0.107437646618109
0.106034368950939
0.104508478799836
0.102827706384027
0.100941517345222
0.098771617576575
0.0961628896224224
0.0927934688136597
0.0883626745629189
0.126223914083192
0.124838893287366
0.124306847246371
0.123646553128647
0.12296358701904
0.122267156315737
0.121559333921991
0.120836524847995
0.120098120214854
0.119343007833406
0.118568440251075
0.11777146981343
0.116950859853462
0.116101658198684
0.115220069904805
0.1142995061414
0.113333922794288
0.112314526935213
0.111236960183577
0.110094446333756
0.108879086242105
0.107579836068362
0.106181266566594
0.10466081710234
0.102986437289932
0.101107945268458
0.098948061384602
0.0963546760274445
0.0930059939799424
0.0885653093552634
0.126294371398314
0.124948973518093
0.124422092780637
0.123764516172082
0.123080253195914
0.122382460206496
0.12167387737535
0.120950819056845
0.120212590915423
0.119457963058469
0.118684101715733
0.117888053678459
0.117068640641523
0.116220918608562
0.115341078366136
0.114422522073413
0.113459215146846
0.112442379501494
0.111367684755661
0.110228390559212
0.109016650776577
0.10772149375653
0.106327591893431
0.104812531063538
0.103144472276735
0.101273570795929
0.0991234980939986
0.0965449668857438
0.0932168053167636
0.0887686163224289
0.126390985607449
0.125063041583186
0.124540442432958
0.123883773625778
0.123197768586264
0.122498329581677
0.121788810940667
0.121065389594654
0.120327247429558
0.119573027421437
0.118799818970351
0.118004638679561
0.117186371221795
0.116340080799192
0.115461944770794
0.114545356373484
0.113584289898657
0.112569981203731
0.111498127419113
0.11036202268808
0.109153871849331
0.107862772880703
0.106473496308607
0.104963769804197
0.10330195759562
0.101438535829317
0.0992980612740182
0.0967338917354339
0.0934258626915875
0.0889722294703622
0.126510095872149
0.125183276845204
0.124662251220415
0.124004581790115
0.123316349666997
0.122614954263873
0.121904314872759
0.121180413948298
0.12044225781565
0.119688361631114
0.118915747346123
0.118121375517745
0.117304197955679
0.116459287220466
0.11558280820815
0.114668145210461
0.113709280608091
0.112697463136097
0.111628416855662
0.110495469015426
0.109290873346248
0.108003794790407
0.10661909839267
0.105114648605958
0.103459004513377
0.101602946142858
0.0994718476572082
0.0969215382882553
0.0936331172979224
0.0891759392435589
0.126646740781832
0.12531022000321
0.124787844429624
0.12412718267449
0.123436204756154
0.12273250359683
0.122020548563441
0.121296054663474
0.120557773912577
0.11980411022283
0.119032023799173
0.118238396636858
0.11742224845664
0.116578660960768
0.115703787815771
0.114791004207766
0.113834299675559
0.112824934599916
0.111758659295104
0.110628832694316
0.109427755284997
0.108144656195455
0.106764491269994
0.105265256424341
0.103615697029531
0.101766879359668
0.0996449254161581
0.0971079587536326
0.0938387279459988
0.0893796150540343
0.126801410401818
0.125453559734584
0.124917562890153
0.124251802808784
0.123557533839771
0.122851132826592
0.122137659352308
0.121412464299435
0.120673936303027
0.119920406024269
0.119148772061141
0.118355821163457
0.117540636507246
0.116698310665609
0.115824987716322
0.114914033405511
0.113959443339709
0.112952488140726
0.111888943601536
0.110762198880888
0.109564599028043
0.108285434458271
0.106909747999095
0.105415661398925
0.103772097536645
0.101930390802506
0.0998173402944103
0.0972931777372391
0.0940427651219776
0.0895831653317586
0.126973284456735
0.125614803680604
0.125051664095758
0.124378666190126
0.123680522613437
0.12297099629627
0.12225578926562
0.121529788871412
0.120790878060768
0.120037373244658
0.119266106702886
0.118473758733395
0.117659465771168
0.11681833424534
0.11594650073464
0.115037320988806
0.11408479542433
0.113080203321169
0.112019345078799
0.110895638579403
0.109701471176647
0.108426191544138
0.107054925597688
0.105565914968395
0.103928251051061
0.102093517869666
0.0999891202160167
0.0974771994196287
0.0942451508374292
0.089786472983936
0.127161349879345
0.125784314909021
0.125190289848415
0.124508000913316
0.123805339075375
0.123092250447235
0.122375077833094
0.121648169888546
0.120908727518392
0.120155130222805
0.119384136047596
0.118592312701425
0.117778832722374
0.116938821800621
0.116068411323608
0.115160946213557
0.114210430272798
0.113208149668929
0.112149928438564
0.111029211637827
0.109838426600519
0.108566977097007
0.107200068171506
0.105716055068973
0.104084188505189
0.10225628344022
0.100160278881223
0.0976600143789333
0.0944458100595421
0.089989473923863
0.127362288652406
0.12596108614023
0.12533355905352
0.124640030907446
0.123932128763991
0.123215050067265
0.122495664527231
0.121767745014449
0.121027610321796
0.120273792318412
0.119502963848348
0.118711583027986
0.11789882901702
0.117059858009237
0.116190797942412
0.1152849817766
0.114336415118148
0.11333638905276
0.112280750188156
0.11116296915333
0.109975510867785
0.108707830917147
0.107345209422618
0.105866108698748
0.104239929389647
0.102418698609785
0.100330818671303
0.0978416067851482
0.0946446504474248
0.0901922125470642
0.12757223910092
0.126142717224258
0.12548152441125
0.124774987578135
0.124060997252058
0.123339549652635
0.122617691584279
0.121888647822247
0.121147651108983
0.120393474430745
0.1196226908872
0.118831668612367
0.118019543458291
0.117181524156849
0.116313735063965
0.115409495807417
0.114462812069094
0.113464977668098
0.112411860621165
0.111296955474105
0.110112762264297
0.108848785017816
0.107490374731358
0.106016094046735
0.104395483950129
0.102580764967665
0.100500733051238
0.0980219581873721
0.0948415736300654
0.0903946407910955
0.127790806523097
0.126328242271709
0.125634189992438
0.124913087350596
0.124192035488027
0.123465906884528
0.122741306475506
0.122011007813153
0.121268975084143
0.12051429263442
0.119743418897527
0.118952667442437
0.118141063660996
0.117303899939523
0.116437294928535
0.11553455360172
0.114589679833433
0.113593967754564
0.112543305535341
0.111431209923492
0.110250213530027
0.108989865374788
0.107635582942901
0.106166022321551
0.104550855076373
0.102742476558502
0.100670008614899
0.0982010491845761
0.0950364830529523
0.0905966854032038
0.128014716117558
0.126516313824964
0.125791432423486
0.125054481040652
0.124325394109759
0.12359428499208
0.122866663267931
0.122134951871504
0.121391709704005
0.120636364531708
0.119865258605988
0.119074673325699
0.118263477571187
0.117427065120831
0.11656154912839
0.115660219184442
0.114717075266452
0.113723409135022
0.112675127767665
0.111565768336836
0.110387893404879
0.109131093475776
0.107780847953686
0.106315899376598
0.104706039982299
0.102903821628751
0.10083862688172
0.0983788607810859
0.0952292883780602
0.0907981991150218
0.128236066386516
0.126705462993262
0.125952991777384
0.12519925036444
0.124461276009584
0.123724852812531
0.122993922741026
0.122260607182675
0.121515986655295
0.120759811316448
0.119988330033275
0.11919777805643
0.118386875160298
0.117551101068749
0.116686570082813
0.115786556766895
0.114845054809992
0.11385335064095
0.112807368612632
0.111700664478418
0.110525828050505
0.109272487750911
0.107926180168451
0.106465727201793
0.104861031748547
0.103064784230614
0.101006565922293
0.0985553752103036
0.0954199137197411
0.0909990282352627
0.128447809178691
0.126894308455212
0.126118484061001
0.125347437994956
0.124599871660238
0.123857783148755
0.123123251837065
0.122388104501102
0.121641944195297
0.120884762140538
0.120112753283499
0.119322080152629
0.118511350554619
0.117676092194019
0.116812432451702
0.115913632148426
0.114973675871125
0.113983841474558
0.112940069174032
0.111835931388651
0.110664042399847
0.10941406493216
0.108071587879284
0.106615505334575
0.105015820780823
0.103225345736649
0.10117380187728
0.0987305765145019
0.0956082660849634
0.0911988859883504
0.128646280262044
0.127082106069352
0.126287423806026
0.1254990468109
0.124741339429269
0.123993251036143
0.123254823076463
0.122517580695739
0.121769729786787
0.12101135543804
0.120238649601302
0.119447685699402
0.118637004670363
0.117802127336813
0.116939214533508
0.116041514102233
0.115102998179789
0.114114932546518
0.113073271689728
0.111971602701209
0.110802561474064
0.109555841377924
0.108217078607314