/*--------------------------------*- C++ -*----------------------------------*\
  =========                 |
  \\      /  F ield         | OpenFOAM: The Open Source CFD Toolbox
   \\    /   O peration     | Website:  https://openfoam.org
    \\  /    A nd           | Version:  6
     \\/     M anipulation  |
\*---------------------------------------------------------------------------*/
FoamFile
{
    version     2.0;
    format      ascii;
    class       volScalarField;
    location    "0.0052";
    object      T;
}
// * * * * * * * * * * * * * * * * * * * * * * * * * * * * * * * * * * * * * //

dimensions      [0 0 0 1 0 0 0];

internalField   nonuniform List<scalar> 
18800
(
343.472783278753
347.649859842044
349.850670869657
351.006684564825
351.566444917975
351.960696431228
352.314451793361
353.371882178794
343.301494672376
347.533958716208
349.749752381386
350.910927865311
351.47481888772
351.870078199819
352.226035644588
353.214468963719
343.096804631596
347.233250569878
349.479875416235
350.657944258312
351.234066723347
351.641541342521
352.073938913087
353.014246300475
342.908062730243
346.751706438778
349.040427804884
350.254167449384
350.854167311698
351.28427255457
351.852171817905
352.757905213266
342.679391849299
346.139195061392
348.478724758515
349.750292150001
350.387355858871
350.852860639442
351.572539660285
352.425013248417
342.351494017788
345.453825237477
347.850229490953
349.19798727601
349.883644987736
350.390545426989
351.235820088283
351.998998222543
341.84193879183
344.739259273152
347.192715501982
348.627852525088
349.370654631302
349.922816073029
350.839166175484
351.498336460198
341.264943625278
344.027900757187
346.525545324304
348.052483592856
348.858475380052
349.456791679277
350.396646170204
350.97796537422
340.718349749612
343.343690068802
345.856740696047
347.475011312481
348.348675456307
348.993707895887
349.938890761043
350.473522486203
340.266456500478
342.702101022622
345.189618890037
346.894750467284
347.839624476801
348.531700116703
349.482056017205
350.03076248351
339.984767681851
342.112270659163
344.525444656992
346.309823015306
347.328783858063
348.06873769982
349.031059520378
349.710162199861
339.768251992911
341.572828344167
343.866442296014
345.71828395833
346.813546020296
347.602851908137
348.586219317329
349.433853843662
339.553924528743
341.07777189056
343.21411596563
345.118572021324
346.291500622415
347.132276948388
348.146281776065
349.144114106997
339.289512725846
340.613192702439
342.57207419305
344.509783861121
345.760503699618
346.655266496423
347.706211745294
348.80545884718
338.987299566811
340.170259238392
341.940683766122
343.891751542969
345.218695835681
346.170102693304
347.259506695121
348.429186729493
338.695275589448
339.745792153396
341.32604100956
343.265369724492
344.664526053298
345.675120624576
346.804624807789
348.041223739361
338.436298903043
339.348311348109
340.728600949278
342.632627126351
344.096819315277
345.16876673953
346.341758916836
347.64792020199
338.215299698874
338.985246910692
340.16238089736
341.997343837529
343.514902392493
344.649646555442
345.869688929236
347.247879135713
338.029255829566
338.669714129883
339.62917153224
341.364916935866
342.918836792602
344.116566416654
345.386960544695
346.836940489502
337.873580811691
338.404191534075
339.152141403122
340.743467970485
342.309769501749
343.568670712301
344.891804734862
346.409104111908
337.742102156712
338.185795523823
338.730310503661
340.142185519647
341.690516575394
343.005529514247
344.382478481806
345.956598185662
337.628285199062
338.002036175386
338.387697205595
339.572355804467
341.066268871353
342.427553527695
343.85735312899
345.470253059685
337.521521138045
337.844163070922
338.107866306718
339.044398576289
340.445494787857
341.836077694828
343.315168933369
344.943110112251
337.413489204656
337.702399438327
337.849177112055
338.569088817341
339.840207153724
341.234507951644
342.755039071398
344.380729449848
337.301656187066
337.570214365377
337.601893696239
338.155492359343
339.265235909301
340.627997894186
342.176637971049
343.80059420359
337.213784559419
337.448217753391
337.38824136662
337.810860156911
338.736568652059
340.026286398312
341.580396037981
343.221665743748
337.156003939586
337.345509754743
337.218364118908
337.539166050429
338.269022168088
339.441327606168
340.969240302241
342.657085180768
337.122590076188
337.265765646366
337.097108560631
337.334883523749
337.874407888748
338.892378130177
340.350601415857
342.101095643594
337.100396056907
337.207947609701
337.01581164836
337.186210259949
337.558857991862
338.397057167759
339.743299956699
341.529506528533
337.08463723744
337.165361472709
336.972679970261
337.081352433186
337.322214622295
337.977264343476
339.17885957445
340.937641267834
337.075537861475
337.14209027004
336.95360180414
337.005872029285
337.15959287368
337.642049236349
338.697879650578
340.363908621172
337.071165455085
337.12606245397
336.945377723876
336.951230506577
337.052752934899
337.397934062576
338.316369234839
339.844570948767
337.069412924468
337.115217278798
336.938237320129
336.911914205803
336.981595542475
337.234039181539
338.025934901108
339.393709847835
337.068657858578
337.107202853451
336.929386325803
336.882867922165
336.934201613766
337.130998568652
337.810699645046
339.008328537822
337.068471450072
337.099598433576
336.918392448487
336.864630384998
336.902712691746
337.061524197168
337.649270030485
338.671669196399
337.068666836478
337.091992277152
336.907561871932
336.855417617099
336.882128683039
337.013098250813
337.520453103626
338.361490298114
337.069186606506
337.08447052514
336.898753144385
336.850153940524
336.868592649347
336.97673862138
337.411287284282
338.058440104287
337.069730957295
337.077127010018
336.89223721544
336.846834629887
336.859321005277
336.949251832308
337.319172209775
337.772562061273
337.070223790052
337.070057042558
336.887650226204
336.844763734483
336.85270246474
336.927019010198
337.242717230735
337.547059815199
337.07071944473
337.063370098847
336.884472573006
336.842977552794
336.847840248428
336.90936414592
337.179352316401
337.39719354658
337.071211243874
337.057284672973
336.882307943471
336.841355688636
336.844093216229
336.894656415907
337.126573742327
337.289753580588
337.071717282738
337.051847923499
336.880761300719
336.839853959912
336.840045156571
336.883024320161
337.081322571826
337.206198395419
337.072248281371
337.04668460672
336.879478137988
336.838571941715
336.834224920383
336.873318194643
337.045479578108
337.130608041033
337.072808515732
337.041570654342
336.878192554403
336.836567299993
336.822820780382
336.862545581545
337.016831325846
337.049021149455
337.073400884886
337.036431068617
336.876464406544
336.832180100141
336.807113654311
336.847816701789
336.990032979211
336.951177545266
337.074028464127
337.031313651992
336.873878855381
336.826170145136
336.790885514193
336.829403141475
336.96037940572
336.874316389664
337.074694429299
337.026361977283
336.870305772069
336.819784102868
336.778061414703
336.812032676924
336.930139754644
336.830633121124
337.075401183049
337.021767021843
336.866741942778
336.814000321414
336.770399871186
336.798876586176
336.902791699057
336.802220291223
337.076148068782
337.017645681736
336.86412537325
336.809531839807
336.767033182621
336.789538219132
336.877967294036
336.780290745848
337.076934111822
337.014028199912
336.862765611748
336.806549928928
336.765280623404
336.782558957403
336.855721808128
336.760768950381
337.077755826572
337.010761350353
336.862207518791
336.804750944487
336.76395537786
336.776827848979
336.835076774297
336.742122287117
337.078608574941
337.007673612445
336.862063626722
336.803713818815
336.762824471103
336.771911418158
336.815365524257
336.72439867596
337.079486349577
337.004637695161
336.862136131226
336.803133688488
336.761926089654
336.767436609342
336.796059083331
336.707805682056
337.080381291577
337.001591999925
336.862299571115
336.802938184813
336.76129739195
336.762077090366
336.777534366503
336.692051873946
337.081286443634
336.998513314244
336.862555466295
336.803010450626
336.760989349383
336.754351807182
336.761981148284
336.677210680488
337.082194849313
336.995396282079
336.862863304291
336.80335651908
336.760695743489
336.746612083246
336.749762702627
336.662957102616
337.083099330108
336.992250778587
336.863171471406
336.80375634784
336.760485288188
336.74062789015
336.739905645801
336.648284226542
337.083992046047
336.989102017902
336.863437661319
336.804276385136
336.760410139009
336.736225937803
336.731499780782
336.632316581374
337.08486594065
336.985968123756
336.863683910671
336.804576978085
336.760439868862
336.732308901582
336.7235892853
336.61598402232
337.085713148047
336.982873954775
336.863913320965
336.804685633687
336.760366434801
336.729155565741
336.715348078641
336.603361060062
337.086526933208
336.979836553552
336.864156884107
336.804547338372
336.759965787629
336.727288948524
336.707846815535
336.59351680525
337.08730095646
336.976876079464
336.864419983487
336.804158801958
336.759440249925
336.72535696882
336.700207778701
336.58957641015
337.088030412064
336.974010348231
336.8647144357
336.803607512195
336.758452801708
336.723215986462
336.692582589536
336.585276082451
337.088713695946
336.971254818563
336.865035170287
336.802996701492
336.757150859829
336.72070742341
336.684957562264
336.581694720457
337.089354026125
336.968625171767
336.865366264402
336.802403773761
336.755376369067
336.717649765229
336.677831672045
336.577440422969
337.089963117842
336.966132601069
336.865685064498
336.801817121433
336.753712904917
336.714196121395
336.671489038734
336.571578695847
337.090564354092
336.963785817292
336.865959146709
336.801229321776
336.751678354442
336.71037100284
336.664766731249
336.563614738494
337.091195021958
336.961590221355
336.866180769484
336.800582953237
336.749978303436
336.706337663272
336.657599847012
336.555046359194
337.091905378144
336.959545695735
336.866331396042
336.799864006626
336.74800996466
336.702213052653
336.649924252548
336.546274225044
337.092742972105
336.957627765582
336.866426849522
336.79907818612
336.746001934408
336.698006316301
336.641931206214
336.537185366615
337.093705635894
336.955825727248
336.866453868999
336.798216246049
336.743873973255
336.693679818277
336.633694428247
336.527567110043
337.094696658858
336.954090511698
336.866390810617
336.797296255622
336.74164097641
336.689192714906
336.625251865702
336.517326664518
337.095496438229
336.952387279025
336.866239628266
336.796254616695
336.739255349632
336.684514146983
336.616606010247
336.506449402964
337.09590056657
336.950657982555
336.86599438168
336.795748579081
336.736717398448
336.679600625568
336.607728414314
336.49499452204
337.096205346411
336.948697234188
336.865634906059
336.795199199446
336.734096393857
336.674531932143
336.598626329247
336.483033933028
337.096477686213
336.946809695376
336.865343286561
336.794561267957
336.731339441967
336.669276688753
336.589308244434
336.470653428027
337.096727314663
336.944971187161
336.864857946404
336.79358989195
336.728432375765
336.663826470886
336.579787936352
336.457932112891
337.096955394997
336.943176781711
336.864318617861
336.792447140614
336.725375982784
336.658169676127
336.570074848758
336.444945684973
337.097159000393
336.941447661259
336.86367844932
336.791090620621
336.72220263629
336.652327227044
336.560189808483
336.431771559683
337.097343434434
336.939771774915
336.862955365741
336.789456879946
336.718901861612
336.646308407877
336.550167539536
336.41849361656
337.097509232804
336.938150138322
336.862153291777
336.787686452964
336.715463487637
336.640103492921
336.540036609858
336.405115418597
337.097658628408
336.936580356818
336.861278829805
336.785805199838
336.711906893987
336.633732859973
336.52982968827
336.391622742847
337.097793636179
336.935060965857
336.860333850306
336.783820272819
336.708231696864
336.627208868243
336.519590770576
336.378083274558
337.097916049487
336.933590044355
336.859322517502
336.781742139551
336.70445039149
336.620548211877
336.509367500276
336.364536257328
337.09802751436
336.932166083492
336.858250157903
336.779578383399
336.700576155896
336.613772769879
336.49921539442
336.351022330555
337.098129520913
336.930787853495
336.85712277616
336.77733833624
336.696624971869
336.606912677742
336.489190604156
336.33760355632
337.098223395065
336.929454468948
336.855946941148
336.77503311156
336.692615761863
336.600007035005
336.47934260317
336.324315329975
337.098310328775
336.928165567566
336.854729691426
336.772675461875
336.688570833589
336.593104504189
336.469699361725
336.311080151445
337.098391396837
336.926921615332
336.853478956431
336.770279933633
336.684515806462
336.586257022119
336.460297931794
336.298042441926
337.098467564055
336.925724298099
336.852204174946
336.767863444831
336.680480388727
336.579521486592
336.451177016578
336.285278825253
337.098539669233
336.924576922684
336.850916957293
336.765446193775
336.676499044775
336.572958806637
336.442384871756
336.272865764887
337.098608369331
336.923484746336
336.849631779517
336.763052717669
336.672611557244
336.566633839732
336.433981500804
336.260901988246
337.098674042607
336.922455180435
336.848366768385
336.760713252215
336.668863249845
336.560613044803
336.426059178495
336.249590456939
337.098736677864
336.921497892397
336.847144312704
336.758465038636
336.665306285637
336.554970924992
336.41871444137
336.239057131715
337.098795780208
336.920624818528
336.845991096271
336.756353056426
336.662001722716
336.549791990527
336.412039305099
336.229434125391
337.098850286126
336.919850135969
336.844937663678
336.75443030844
336.659021835576
336.545172733026
336.406139556168
336.220890072851
337.09889848103
336.919190731169
336.844018564797
336.752757850711
336.656450547545
336.541221346352
336.401127153562
336.213603176518
337.098938433651
336.918665999448
336.843270623359
336.751397751843
336.654368850555
336.538038986492
336.397101481439
336.207746708373
337.09896796313
336.918286906898
336.842716351608
336.750388775387
336.652819556793
336.535668391361
336.394091034519
336.203343464356
337.098984520237
336.918067066839
336.842383033718
336.749788423662
336.651924451443
336.534323459097
336.39244035671
336.200887511152
352.600676242508
350.989517616852
351.620997105692
351.804744122961
351.840764935601
351.862063066806
351.882216745258
351.892565877361
351.889891053383
351.872180130425
351.836123039366
351.783897795855
351.724591569273
351.660607150155
351.593124369823
351.519755545294
351.439365948828
351.348901158381
351.250428650554
351.144892695974
351.033831019448
350.917924347106
350.796982150571
350.668917057914
350.529796228298
350.368661489542
350.190278811199
350.099577999446
350.724976307083
348.312749072256
352.469497299578
350.89788501141
351.497817209075
351.671093304845
351.702941627701
351.721399569073
351.739252019843
351.747494731812
351.742615352012
351.722404072283
351.683515991275
351.628268961075
351.565464595724
351.497511726307
351.42557320287
351.347259475468
351.261386450466
351.164863114012
351.059663813421
350.946610480191
350.827061272812
350.701466788214
350.569313161767
350.428048767392
350.272988217097
350.09194437985
349.887107090347
349.753049206455
350.158236447778
347.451569117434
352.219473582481
350.747930659319
351.275295669393
351.409187031257
351.433055245058
351.446404628378
351.460030345078
351.464437095512
351.455516651051
351.430633067132
351.386498983231
351.325603621858
351.256302643525
351.180959442734
351.100733024608
351.013246427372
350.917209050319
350.809453433465
350.691796199456
350.564832060014
350.429597552993
350.286126856114
350.133323994312
349.967797264578
349.783529064199
349.566205213914
349.313004211064
349.09915977604
349.164727080372
346.566386472664
351.894332973557
350.491555675308
350.974636754437
351.073514385033
351.088129244042
351.095882030701
351.104738546078
351.104742654868
351.091065731298
351.06054833661
351.010152108985
350.942471595214
350.865329324311
350.781084333838
350.690877285738
350.59233109295
350.484048938087
350.362760663154
350.230099911
350.086394338357
349.932302942961
349.767366709102
349.589799530097
349.395212787701
349.176034430213
348.915498688677
348.604640543903
348.294019290456
348.064360451282
345.704613841217
351.514368215872
350.17041516253
350.648439708844
350.719045936601
350.724990784156
350.727789827265
350.732243553735
350.728077151051
350.709736936795
350.673585005704
350.61698005847
350.542471051062
350.457459510282
350.364237617749
350.263965355799
350.154264297856
350.033627098596
349.898669558528
349.750846592456
349.590217536164
349.417066104592
349.23043857149
349.02785709962
348.80393140566
348.549552758111
348.24552597814
347.876547966753
347.46891575264
347.024175707838
344.876642216131
351.104719061713
349.839554649536
350.323683686138
350.368707303851
350.367081250125
350.365768706127
350.36640367811
350.358461678259
350.335708812226
350.294198998616
350.231690302417
350.150633796819
350.058046220805
349.95617350758
349.846191882562
349.725714810941
349.593133893141
349.444946170049
349.282434306659
349.105400292828
348.913768113297
348.706106708419
348.479270525793
348.226902205024
347.938424670194
347.592300464031
347.166979530508
346.666473803421
346.058357299832
344.073422999256
350.711680373206
349.525161187291
350.007455225257
350.027646799726
350.019480277105
350.014801631438
350.012143997362
350.000783714999
349.973847521112
349.927273141649
349.859163135311
349.771841194193
349.671992087621
349.561810409215
349.442492941413
349.311642319747
349.167552607621
349.006600648568
348.829902748831
348.637014412022
348.427515750387
348.199517122315
347.949231538034
347.669373014145
347.347964505682
346.961214126905
346.481506955355
345.892789267778
345.14824413419
343.285115866379
350.388866049395
349.262806922986
349.699775773579
349.69448580321
349.680766876843
349.67339659556
349.667901194198
349.653421138178
349.622501042078
349.571112889492
349.497649301305
349.404296722462
349.297442084352
349.179232872505
349.050883543766
348.909983037376
348.754732061416
348.581387023289
348.390901813044
348.182595025062
347.955716286968
347.70793349718
347.434840782636
347.128257321656
346.774862936083
346.3486880826
345.816255937828
345.143283208872
344.277022567131
342.504525271895
350.187329958999
349.094958130915
349.39839467014
349.366933493259
349.34860389657
349.339173622304
349.331273306129
349.313925961624
349.279217746987
349.223231671636
349.144624535114
349.045436516916
348.931790076501
348.805784470188
348.668649810039
348.517959545472
348.35182366142
348.166378566176
347.962418814492
347.73903426285
347.495155598056
347.228022253758
346.932629170503
346.599930547959
346.215311543663
345.750695919437
345.166960622787
344.41310757692
343.433597856444
341.727194628287
350.050787271179
348.971566400427
349.100462328998
349.04281431985
349.020892718311
349.010017295816
349.000117863088
348.980144473115
348.941843513763
348.881454597854
348.797889053541
348.693037474865
348.572784307761
348.439180257241
348.293467902919
348.133203743885
347.956409499492
347.759102435273
347.541920312917
347.303731546327
347.043158166369
346.757023681102
346.43974157904
346.081428050621
345.666216780478
345.163993021135
344.53021290196
343.698416343359
342.611114075413
340.950550490925
349.936234825019
348.864108990017
348.803028805212
348.720416086355
348.695994363605
348.684282838293
348.672794124705
348.650437763174
348.60874111197
348.544134564343
348.455781552356
348.345425529821
348.218734827867
348.077710209284
347.923603621816
347.753953569231
347.566695670196
347.35772926455
347.127537683208
346.874774591116
346.597762881541
346.292921812111
345.954100065949
345.570600838962
345.125346979929
344.586252892157
343.903589490276
342.996500247571
341.805227306355
340.173010328865
349.819035727788
348.729782753848
348.50350089568
348.398477038337
348.372620748489
348.360697728744
348.348037804011
348.323551339058
348.278661261702
348.21001968692
348.11704300099
348.001336212408
347.868368982543
347.720090396329
347.557758567348
347.378893248972
347.18134612237
346.960900149405
346.717886573497
346.450750629318
346.157525117757
345.834236229067
345.474183938165
345.065882162296
344.591082382119
344.015796654698
343.285356027168
342.305436957493
341.013111638085
339.393821153086
349.687800768342
348.541297948156
348.199830970577
348.076072752913
348.049748452259
348.038259816599
348.024860097702
347.998509781694
347.950637608097
347.878146294583
347.780707596912
347.659803085621
347.520717651215
347.365346368597
347.19495041058
347.007030309619
346.799356037847
346.567596052551
346.311931952462
346.030606622329
345.72137153613
345.379870756834
344.998871474607
344.566121197778
344.062239213707
343.451405368998
342.674265380004
341.623863811704
340.232884168636
338.612852670998
349.532399493575
348.280165725488
347.890427234691
347.752337693609
347.726533019961
347.716153685088
347.702459772622
347.674527349347
347.623897053581
347.547748198247
347.446010783336
347.320064580002
347.17502046209
347.01271673811
346.834414598656
346.637595154941
346.41994906161
346.177032471307
345.908879952327
345.613537980135
345.288485312773
344.92899474505
344.527316641288
344.070454534007
343.537934835102
342.892177326149
342.069405230278
340.950804359059
339.463288739111
337.830215361052
349.337652767627
347.981560263268
347.574109897121
347.426463220643
347.402254603686
347.393695842715
347.380167102981
347.350950826546
347.297802261986
347.218198578102
347.112330492992
346.981504425706
346.830665338902
346.661591714314
346.475541753964
346.26997721855
346.04251206353
345.788592669089
345.508109408934
345.198918221189
344.858233687719
344.480968226775
344.058871418515
343.578225379445
343.017503120871
342.337438688835
341.470102896841
340.285561130169
338.703522266756
337.047263934191
349.083018634065
347.668134380147
347.249912589045
347.097700566943
347.076277563123
347.070297677101
347.057406724487
347.027219610929
346.971811500453
346.88896956259
346.779146337488
346.643610385788
346.487146646906
346.311470649828
346.117834524967
345.903681029025
345.666550323587
345.401781888517
345.109124996274
344.786250903393
344.430118543524
344.035290959541
343.593033086875
343.088928745816
342.500437138837
341.786683055221
340.87586101393
339.627643208705
337.953048894864
336.264421585671
348.754780564514
347.339931041413
346.916931175255
346.765364310436
346.748018301558
346.745440896197
346.73367985807
346.702838612185
346.645451423311
346.559604953079
346.446012014776
346.305946360402
346.1440369278
345.961933389634
345.760878486799
345.538296603976
345.291657353675
345.016196537065
344.711525701714
344.375137303965
344.003743185585
343.591568184944
343.129408881504
342.602174622795
341.986350639471
341.239530852838
340.286314288635
338.976712916086
337.211588753277
335.482298196917
348.372727279028
346.988712877757
346.574273879689
346.428817366394
346.416919744226
346.418665199077
346.408552894642
346.377358725235
346.318297709196
346.229700695057
346.11253566182
345.968132468456
345.800966759128
345.612619889663
345.404321468644
345.173478442697
344.917493507325
344.631502366711
344.31498252212
343.965253569375
343.57878887262
343.149486452456
342.667691002922
342.117661991347
341.474950876921
340.695700679053
339.701198899793
338.332546493117
336.479166484247
334.701491206123
347.940880907519
346.59993040123
346.221141437738
346.087453942582
346.082450062955
346.089561455291
346.081627515827
346.050362624332
345.989961200815
345.898890393413
345.778365639016
345.629830449611
345.457610061103
345.263215371032
345.047858513729
344.808930261701
344.543770453507
344.247418649183
343.919222299421
343.556334164359
343.154997822505
342.708796120535
342.207638516551
341.635160005249
340.966018914049
340.154988523677
339.120330214354
337.695004358752
335.755895722681
333.92257662384
347.458129836837
346.166959585729
345.856900517142
345.740694059778
345.744126479189
345.757718422429
345.752523329587
345.72145488088
345.660077675184
345.566834184611
345.443179740736
345.290732503009
345.113672949696
344.913439075425
344.691220507392
344.44439347364
344.17023947497
343.8637062644
343.524015566175
343.148159436403
342.732160451628
342.269298222121
341.749063763298
341.154493862547
340.459394824417
339.617252151798
338.543585993622
337.064006988559
335.041921296319
333.146032688733
346.934243000706
345.707265920795
345.481157003239
345.387965214625
345.401516416443
345.422724498191
345.420870503785
345.390256124626
345.328300074088
345.233210051421
345.106676568004
344.950552496289
344.76888501531
344.563035469317
344.334165300244
344.07963821377
343.796682371154
343.480158453862
343.129167122007
342.740545983904
342.310105497434
341.830834294641
341.291821842673
340.67553386856
339.954966226316
339.082398996647
337.970893392541
336.439515911767
334.33746589489
332.372352149498
346.383106936095
345.230797842505
345.093711581378
345.02869754042
345.054252548736
345.084177584271
345.086302687044
345.0564011287
344.994292404829
344.897706921778
344.768568081401
344.609018950236
344.422992274162
344.211767115761
343.976470535253
343.714456109083
343.422904143635
343.096593400161
342.734508483249
342.333338948192
341.88869212066
341.393278207133
340.835802207346
340.198186692862
339.452659107262
338.550376465962
337.402218597746
335.82152002334
333.642767595537
331.602132961667
345.809350662209
344.741806479324
344.694479377487
344.662315808295
344.702068786527
344.741679831291
344.74844911314
344.719539545706
344.657724690281
344.560018770239
344.428572999849
344.265869452678
344.075751288964
343.859408695585
343.617927654844
343.348654255291
343.048726919169
342.712848075624
342.339891635628
341.926405645382
341.46780338736
340.956529412872
340.380921731654
339.722388157055
338.952430248288
338.021163933617
336.837558327768
335.210024761455
332.958057056843
330.83588462538
345.214942751708
344.244261750732
344.283542590587
344.288264060685
344.344782011851
344.394828464211
344.406927812603
344.379335917579
344.318268349501
344.219839130408
344.086411563624
343.920845612606
343.726924079502
343.505741819026
343.258336722533
342.98205002852
342.673984729687
342.328772971514
341.945183692994
341.519630131331
341.047340713617
340.520507272874
339.927118812125
339.248097094169
338.454260769587
337.494765914573
336.276932664007
334.60504396158
332.283538952622
330.074199998221
344.603870054337
343.741914131171
343.861319883152
343.906198944272
343.982002272118
344.043209056626
344.061342186026
344.035465474449
343.975591431403
343.876855323803
343.741803235468
343.573687020943
343.376273506567
343.15055037924
342.897501800753
342.614466465707
342.298518878115
341.94422743167
341.550262179953
341.112908410868
340.627218976791
340.085146080264
339.4743481863
338.775289955254
337.958150460772
336.971206070898
335.720378833635
334.006594227516
331.619377867054
329.317867834324
343.992389428775
343.238666917315
343.428613156449
343.515958001686
343.613206365811
343.686395906314
343.711281122382
343.68760577724
343.629353277261
343.53074367281
343.39446209531
343.224127664028
343.023558915733
342.793616264203
342.535226694319
342.24572801787
341.922173691301
341.559075387681
341.155010731484
340.706144080198
340.207362076668
339.650390521773
339.022576241158
338.303955928124
337.464112652326
336.450521796251
335.167945665936
333.414690771255
330.965695787165
328.568182805206
343.40809758156
342.737899525198
342.986558224194
343.117480138252
343.23792644125
343.32395677707
343.356320856477
343.335427633153
343.279198393385
343.181166374046
343.044088358373
342.871895331987
342.668531937475
342.434715302388
342.171310913899
341.875656528016
341.544792509648
341.173181342903
340.759315053991
340.299244243819
339.787698784881
339.216191435232
338.571776640465
337.834092394083
336.972169448832
335.932759194168
334.619688521761
332.829344578049
330.322547965542
327.827135243554
342.868053868102
342.24172123137
342.536560781688
342.710815134269
342.855780495188
342.955457766148
342.996026771668
342.97858828777
342.924749567328
342.827767662674
342.690365117922
342.516706973531
342.310932583825
342.07361337602
341.805545741358
341.50406731847
341.166213796974
340.786406486659
340.363059027469
339.892115583489
339.368158757942
338.782501740652
338.121926141749
337.365700590571
336.482347188989
335.417968312757
334.075664543598
332.250560839656
329.689916382593
327.096494704795
342.372847638813
341.750627473002
342.080129796294
342.296158952845
342.46647103251
342.580467029787
342.62995428912
342.616727326009
342.56560078516
342.470170385477
342.332956686679
342.158261995275
341.950486130985
341.710062635482
341.43771030056
341.130765296663
340.78626727736
340.398604844081
339.966120852689
339.48466048227
338.948668615467
338.34927244692
337.673000501667
336.898781377355
335.994672028864
334.906198531977
333.535928106941
331.678336960622
329.067733634946
326.375373258389
341.91450628953
341.264194302104
341.618704407695
341.87389688803
342.069783727456
342.198557795064
342.257648309295
342.249463428869
342.201311717872
342.107973799632
341.97150539815
341.796237003089
341.586899821206
341.343797659848
341.067567562773
340.755541006941
340.40477002236
340.009619383672
339.568369165017
339.076773124012
338.529148003635
337.91644865388
337.224970388672
336.43333102505
335.509165567045
334.397494022392
333.000526350906
331.112660045055
328.455919879958
325.660100086813
341.479941743819
340.781892569773
341.153619525372
341.444649839812
341.665591887039
341.809311219744
341.878640210437
341.876388357563
341.831407783703
341.740752592292
341.605625615321
341.430289264351
341.219853446553
340.974531370411
340.694860260924
340.378166569617
340.021522423315
339.619278017006
339.169659048309
338.668335501592
338.109505576688
337.483965482735
336.77779723622
335.969336959604
335.025840446387
333.891889212071
332.469494757799
330.553497788198
327.854289912225
324.944517327824
341.057823691096
340.302715678913
340.686259463431
341.009330847879