/*--------------------------------*- C++ -*----------------------------------*\
  =========                 |
  \\      /  F ield         | OpenFOAM: The Open Source CFD Toolbox
   \\    /   O peration     | Website:  https://openfoam.org
    \\  /    A nd           | Version:  6
     \\/     M anipulation  |
\*---------------------------------------------------------------------------*/
FoamFile
{
    version     2.0;
    format      ascii;
    class       volVectorField;
    location    "0.0052";
    object      U;
}
// * * * * * * * * * * * * * * * * * * * * * * * * * * * * * * * * * * * * * //

dimensions      [0 1 -1 0 0 0 0];

internalField   nonuniform List<vector> 
18800
(
(91.3417549197777 0 0.0460842959687491)
(52.4234176142985 0 0.0989856104634938)
(45.6066818526301 0 0.028654096008361)
(44.2613560529423 0 0.024848936340921)
(43.1770547993259 0 0.0240920165189338)
(42.0106206000758 0 -0.0326745641365439)
(43.4296607100732 0 -0.158601356676826)
(77.7763558502614 0 0.0775243358373938)
(131.350827232745 0 0.369637635934166)
(86.0416696763828 0 0.171830670463092)
(75.0169736121117 0 0.0539509584517356)
(71.2322227750927 0 0.0417879877019085)
(68.775292972413 0 0.0406643878500716)
(66.5948416837371 0 0.06241866047144)
(65.2529654553469 0 0.0821938916617463)
(82.5022390789776 0 -0.0299274022655014)
(156.582347231569 0 0.451511561005858)
(110.261308633818 0 0.283995785878236)
(95.528310692651 0 0.0798222291254038)
(89.855462733913 0 0.0496987045455927)
(86.3503844352413 0 0.0447746459057648)
(83.4261288712621 0 0.0193867099703475)
(81.0040823059068 0 0.0207144253455008)
(85.8609883779206 0 -0.0434571050602958)
(174.990548660487 0 0.780379064473766)
(129.361711002494 0 0.400740721434014)
(111.503884038585 0 0.108419129759451)
(104.178759840297 0 0.0576752821211818)
(99.7590294519269 0 0.0475882438349888)
(96.211354757692 0 0.049148523910059)
(93.1029512636177 0 0.0546114645169573)
(89.1755568685429 0 -0.0175933512228253)
(189.472066533235 0 0.65782163121401)
(145.354481910553 0 0.544829153527991)
(124.890105375779 0 0.151632982322809)
(116.044736402064 0 0.0742253579433919)
(110.776772585315 0 0.0568042670666086)
(106.664074198947 0 0.0411462845422079)
(103.004978486972 0 0.0389188126827795)
(94.0161077564882 0 0.0315211178555048)
(201.232901533287 0 1.32449662682902)
(159.262594759075 0 0.703493842559081)
(136.673944749998 0 0.208939579079833)
(126.393849262418 0 0.100290383501089)
(120.311726838682 0 0.0736369295222561)
(115.660439430819 0 0.0614532644872518)
(111.488035488548 0 0.0381516520965582)
(100.62636927888 0 0.0789235983859975)
(210.876242797291 0 1.44430844357473)
(171.630893120686 0 0.881868094067965)
(147.402524377775 0 0.280621484498851)
(135.750974820861 0 0.135226990992545)
(128.870068016455 0 0.0968027622057789)
(123.690166959687 0 0.076294626663369)
(118.985374596658 0 -0.00631907939468951)
(107.101004358351 0 0.126836099969903)
(218.744705943671 0 1.61281705645581)
(182.759488201585 0 1.06745218429423)
(157.397398621568 0 0.365851914921137)
(144.430480473557 0 0.178007359911997)
(136.754792741848 0 0.125238532572366)
(131.046244498864 0 0.10061535148678)
(125.775128539951 0 0.00321878438248281)
(113.139492268499 0 0.18484028091233)
(225.151241720589 0 1.67227330426215)
(192.823378253004 0 1.26289579429865)
(166.853844473344 0 0.463084720078723)
(152.63250472948 0 0.228452755251409)
(144.1593420422 0 0.15857043043811)
(137.916320217944 0 0.126616015815362)
(132.060815091026 0 0.0302766534704498)
(118.829732755204 0 0.241047059996658)
(230.391455080676 0 1.69820236861943)
(201.937548812871 0 1.44865785717631)
(175.890576169831 0 0.574701139480353)
(160.491209259856 0 0.286793059524305)
(151.214591375714 0 0.196868217222221)
(144.427613401137 0 0.157765013602487)
(137.981666994773 0 0.066343429746176)
(124.255945901408 0 0.33166109065054)
(234.763093277856 0 1.5828283257483)
(210.19113815848 0 1.63495131166083)
(184.575669558087 0 0.695412638043037)
(168.099963908082 0 0.353433014608035)
(158.013545413998 0 0.240460298424578)
(150.670720373193 0 0.192796398849666)
(143.631682111126 0 0.108755083497011)
(129.493896821647 0 0.328371090466295)
(238.568390701636 0 1.58658387754804)
(217.662654956474 0 1.79207571218786)
(192.940337512852 0 0.833210346024646)
(175.524825596279 0 0.429060777429868)
(164.624895429467 0 0.289801895909107)
(156.712667719413 0 0.232645255849374)
(149.080853093639 0 0.160228514823087)
(134.578037667271 0 0.452564738112372)
(241.989985267369 0 1.82166775629606)
(224.409382444051 0 1.94633938770718)
(200.988249720816 0 0.971988525543844)
(182.811722308288 0 0.514146136654734)
(171.100719835192 0 0.345439012369643)
(162.604833804711 0 0.277441930178575)
(154.381662436043 0 0.221114038580703)
(139.533924130026 0 0.594534304682746)
(245.0856277462 0 1.90784674714473)
(230.453619174407 0 2.06563697782926)
(208.701173589392 0 1.13283972822136)
(189.989950340669 0 0.609546962261401)
(177.480897754101 0 0.407965573656797)
(168.387745703299 0 0.327791964022458)
(159.568650229977 0 0.279072333406622)
(144.399311917635 0 0.701985692899631)
(247.793080387535 0 1.98276606341453)
(235.786368388359 0 2.19516066847734)
(216.045353152959 0 1.27344464317101)
(197.073032427673 0 0.715124269221631)
(183.795515234424 0 0.478019991995944)
(174.093975656421 0 0.384144926813256)
(164.665904650171 0 0.340087479280793)
(149.194974126224 0 0.79203836509607)
(250.067202536002 0 1.9947565310527)
(240.403711863469 0 2.27885950311565)
(222.970424208061 0 1.45047025929346)
(204.05753136126 0 0.831988392435577)
(190.065890074181 0 0.556251160912421)
(179.749828039034 0 0.447096528994007)
(169.698730924369 0 0.416452783928117)
(153.925319854154 0 0.885705160517465)
(251.929715905387 0 2.00281978416385)
(244.318128881125 0 2.38250768912894)
(229.416934338208 0 1.56647360897975)
(210.920042464059 0 0.958238327777263)
(196.304506721524 0 0.643311591961604)
(185.376306771865 0 0.517204459236813)
(174.692489037659 0 0.500013874695963)
(158.583253791871 0 0.979265380407843)
(253.43818130964 0 2.00220334402482)
(247.576936366407 0 2.43004503860749)
(235.309812186842 0 1.75234255652679)
(217.613358101829 0 1.09554281813944)
(202.513928779366 0 0.739764183876405)
(190.989498292287 0 0.59512244499471)
(179.667880551273 0 0.593988981280489)
(163.1644640331 0 1.07366999422882)
(254.65395289745 0 2.00002077509855)
(250.248305456976 0 2.511033499455)
(240.574921267265 0 1.81262854339022)
(224.06306466674 0 1.237610322557)
(208.68478366069 0 0.846024068887249)
(196.600432459913 0 0.68129909727292)
(184.642290533273 0 0.697676570452073)
(167.675104608448 0 1.16825316136393)
(255.626832262666 0 1.99664318576901)
(252.408316342482 0 2.53648818317974)
(245.127935873991 0 1.99862709269904)
(230.168130919926 0 1.38754242234857)
(214.792823453264 0 0.962064703508223)
(202.21435718309 0 0.776549637407412)
(189.630141638001 0 0.812522606746914)
(172.130860020761 0 1.26317371516559)
(256.391982575746 0 1.99119078469684)
(254.115956695204 0 2.59291439481117)
(248.911102776704 0 1.98867774490778)
(235.808466932353 0 1.53107622510425)
(220.795624620748 0 1.08734265083069)
(207.829326000665 0 0.880735058579669)
(194.642393580283 0 0.938830289682182)
(176.551278214932 0 1.35784518973139)
(256.970135558291 0 1.98897037793609)
(255.422876057383 0 2.59674196129619)
(251.884030813758 0 2.15924273321039)
(240.862613482102 0 1.67430587817992)
(226.629480282185 0 1.2200268593619)
(213.433787629216 0 0.995273476073958)
(199.685794023345 0 1.07757988565628)
(180.950287370608 0 1.45207734053718)
(257.370572725558 0 1.97647527017792)
(256.378337785063 0 2.63021978617914)
(254.074998700632 0 2.09498718536615)
(245.232561288854 0 1.79716783569137)
(232.208458511766 0 1.35744265680544)
(219.003258055657 0 1.11781886523021)
(204.762117062296 0 1.22970370074368)
(185.334983263524 0 1.5486902736561)
(257.606716031628 0 1.96446397259159)
(257.033058297939 0 2.62730869747646)
(255.551007914993 0 2.22644816323814)
(248.867470727246 0 1.90567117914037)
(237.427281264071 0 1.49479538672902)
(224.49576746757 0 1.25206685076722)
(209.866487129095 0 1.39545766102814)
(189.714673961765 0 1.64686526667139)
(257.717057877185 0 1.92472890910815)
(257.441277023585 0 2.63748113249236)
(256.559244511759 0 2.20670077920104)
(251.770944021222 0 1.99443061859084)
(242.17150031662 0 1.62700995929873)
(229.847925977897 0 1.38855481374672)
(214.984500587819 0 1.57614382460534)
(194.111450129448 0 1.76932503514089)
(257.790192012391 0 1.94894237085115)
(257.769469780478 0 2.62591057618465)
(257.289815842926 0 2.26201047625725)
(254.005958394176 0 2.05683961808615)
(246.336002708378 0 1.74778172593887)
(234.971837577129 0 1.53826501565021)
(220.088571086795 0 1.76918519169689)
(198.563355318862 0 1.92115148812441)
(257.850729363606 0 1.92883598664342)
(258.038468392914 0 2.63720676592749)
(257.844551531926 0 2.24967158155038)
(255.671043655507 0 2.10639713154074)
(249.846398752809 0 1.85074165891953)
(239.759604830731 0 1.6739595582337)
(225.135066967803 0 1.97687356374456)
(203.108518082055 0 2.10818083135393)
(257.894687352113 0 1.94765398673445)
(258.222005579736 0 2.62555105101635)
(258.248227747453 0 2.29248652716513)
(256.874021388964 0 2.13794566661272)
(252.674686434791 0 1.93529119052439)
(244.092331788745 0 1.82541738359566)
(230.067183599398 0 2.18977362685271)
(207.764796476346 0 2.32461802439989)
(257.907434241909 0 1.93690414161494)
(258.314819504122 0 2.62878847518722)
(258.534671741211 0 2.27547042477737)
(257.714572927257 0 2.15618610290735)
(254.844491659976 0 1.99937513241867)
(247.864310554729 0 1.9353609856781)
(234.822705541406 0 2.41740329222986)
(212.524165610021 0 2.57344310254055)
(257.910398477983 0 1.93228880160723)
(258.334437910225 0 2.61043154610906)
(258.776256476305 0 2.30969762621685)
(258.28860087371 0 2.17644732170506)
(256.423070592961 0 2.04417538116856)
(251.001427083271 0 2.06722361416418)
(239.350085886699 0 2.63796224551879)
(217.366293320762 0 2.79695667393886)
(257.91037582858 0 1.93089415751283)
(258.342193332492 0 2.59619832314028)
(258.966830198591 0 2.28389505580931)
(258.684360730772 0 2.18077946425593)
(257.505816953006 0 2.07668538524345)
(253.488259372134 0 2.13292225387116)
(243.586584764834 0 2.88762913155735)
(222.265301134277 0 3.05662478759064)
(257.915104229911 0 1.93129367023948)
(258.353343726065 0 2.58249281976465)
(259.094207545139 0 2.30318167659666)
(258.958889869289 0 2.18935014491466)
(258.219367703131 0 2.09429337922153)
(255.362631705377 0 2.22852845702347)
(247.39252313453 0 3.0782004439421)
(227.24639565515 0 3.32856822148877)
(257.921518668373 0 1.92907251659729)
(258.360600306641 0 2.57055049173728)
(259.173757783385 0 2.2964909558893)
(259.196008456399 0 2.19777820856576)
(258.724690484859 0 2.10997556630068)
(256.710915708137 0 2.25485870536445)
(250.550968789224 0 3.24802892498016)
(232.444727184277 0 3.60764944617307)
(257.927890552651 0 1.92653508620215)
(258.365543018027 0 2.56012623373724)
(259.21636131247 0 2.3061685162062)
(259.403549980574 0 2.19027231863721)
(259.097666700485 0 2.12248757812996)
(257.63296320325 0 2.31186879050132)
(252.900396386032 0 3.3645205290073)
(237.937865922564 0 3.86186678463256)
(257.933937082068 0 1.92410824491714)
(258.369590462688 0 2.54920567524943)
(259.256718633996 0 2.30584099890942)
(259.563981556219 0 2.19357046152228)
(259.37083707622 0 2.13150005024187)
(258.280414192345 0 2.32363753621842)
(254.674408554024 0 3.44451352616977)
(243.221844753437 0 4.09168480359556)
(257.939634293152 0 1.92162360503939)
(258.373344112933 0 2.53766083149809)
(259.304342696884 0 2.30243309692639)
(259.673309222637 0 2.1963578297652)
(259.562856914813 0 2.13921090025219)
(258.746815213766 0 2.36263239128467)
(256.048682042052 0 3.48735896937082)
(247.676375182444 0 4.26938472738431)
(257.944979713024 0 1.91908589323593)
(258.377042426371 0 2.52555507290933)
(259.339376613404 0 2.29731476187476)
(259.733773773795 0 2.18881728402682)
(259.688896967154 0 2.14546170606315)
(259.082884305701 0 2.36619672274555)
(257.09978192872 0 3.51046234624558)
(251.141694489886 0 4.39146457651407)
(257.949966598852 0 1.91675179450904)
(258.380872639286 0 2.51297107334839)
(259.359685216178 0 2.29200425448244)
(259.754984182213 0 2.18601315478737)
(259.766591251262 0 2.14846456942896)
(259.312228982525 0 2.39430942795197)
(257.881311288739 0 3.52701302054807)
(253.734329210263 0 4.48713366558049)
(257.954281996899 0 1.91408783130195)
(258.384973995377 0 2.49995721156178)
(259.370821332447 0 2.28712634058549)
(259.763230101916 0 2.1838762145655)
(259.814967446657 0 2.15010744274425)
(259.471757568897 0 2.39387509976156)
(258.455069617521 0 3.53329396310349)
(255.696043993861 0 4.56653055429988)
(257.957858030635 0 1.91128365105569)
(258.389494000284 0 2.48657821543377)
(259.376527376221 0 2.28165181515105)
(259.769792353138 0 2.18249425522537)
(259.847183345342 0 2.15196987904745)
(259.587464160109 0 2.41490632821941)
(258.881831814974 0 3.53511035762424)
(257.221482044291 0 4.64459747224867)
(257.960651023909 0 1.90830400874655)
(258.394484896345 0 2.47264790961767)
(259.378811166983 0 2.27579432688246)
(259.775701054298 0 2.18053094706274)
(259.87246246525 0 2.15424408881991)
(259.684232746198 0 2.4103601466891)
(259.215113661873 0 3.53320509202648)
(258.399149609293 0 4.67235477519115)
(257.962760300488 0 1.90515278296358)
(258.400173773957 0 2.45867999376114)
(259.377170754168 0 2.26871436313564)
(259.780287857284 0 2.17798303659297)
(259.904136050689 0 2.15482122588836)
(259.774457628986 0 2.43204030260748)
(259.530515851721 0 3.52034797236754)
(259.274888402935 0 4.71672924832929)
(257.964342603352 0 1.90182180014352)
(258.406721102731 0 2.4445882346827)
(259.370497112797 0 2.26122371976861)
(259.783744625925 0 2.17417395567265)
(259.963660067137 0 2.15881595587708)
(259.867533018173 0 2.42787728707011)
(259.798279236528 0 3.52338669989966)
(259.902602844225 0 4.68965923486102)
(257.965531557572 0 1.89829128223608)
(258.414132604851 0 2.43032134615044)
(259.3580055634 0 2.25462881137264)
(259.78840306928 0 2.17106366603019)
(260.027006823737 0 2.15586353267953)
(259.948244906867 0 2.43906002923824)
(259.961341217232 0 3.48824673670083)
(260.311889703286 0 4.74489758318498)
(257.966411326347 0 1.89454000077802)
(258.422368344217 0 2.41582863268012)
(259.342702004187 0 2.24732581729)
(259.791168213154 0 2.16578960263903)
(260.06320333291 0 2.15638113019578)
(260.00753360483 0 2.43260426587696)
(260.062823977768 0 3.49579723072542)
(260.520412081393 0 4.73667633834059)
(257.967028770029 0 1.89054918845992)
(258.431393858723 0 2.40110939187675)
(259.327460814891 0 2.23974385554013)
(259.789198987983 0 2.15913941350876)
(260.06855444348 0 2.15519523595511)
(260.044457142815 0 2.438430284445)
(260.117713621084 0 3.48228444145167)
(260.568480109203 0 4.74103836110254)
(257.96740682968 0 1.88630162952966)
(258.441146084377 0 2.3861964836236)
(259.315674467679 0 2.23065752889198)
(259.785512523753 0 2.15179249998237)
(260.066768105496 0 2.15382343886233)
(260.066098970955 0 2.43776390717429)
(260.148594673537 0 3.46853760546983)
(260.594233770287 0 4.74250044233643)
(257.967554215091 0 1.88178173258967)
(258.451402038651 0 2.37085302698803)
(259.310940343893 0 2.22013895018171)
(259.781646990454 0 2.14406368691449)
(260.067407037432 0 2.15228592881922)
(260.073719120126 0 2.4406192222903)
(260.173271214725 0 3.4536078223906)
(260.611402042939 0 4.74431285599937)
(257.967485661527 0 1.87698290961943)
(258.462021770945 0 2.35498350496407)
(259.303632052511 0 2.21006420115302)
(259.778163048601 0 2.13576923518556)
(260.070871323518 0 2.15002766062065)
(260.08060674766 0 2.44244970489482)
(260.198696951254 0 3.4390497687)
(260.631629834358 0 4.74714167062946)
(257.967209993322 0 1.87188682370081)
(258.473056362488 0 2.33859930503721)
(259.299131567737 0 2.19927782850091)
(259.775286105823 0 2.1270764750939)
(260.075361696666 0 2.14864988145304)
(260.088105630382 0 2.44311887987065)
(260.224008001712 0 3.42500206375283)
(260.655538270053 0 4.75294531974826)
(257.966734937803 0 1.86647700279568)
(258.484368008506 0 2.32162296217448)
(259.294653903418 0 2.18822928949032)
(259.773357647509 0 2.11811090913667)
(260.080101916681 0 2.14699050145888)
(260.097689670116 0 2.44305687528688)
(260.246623496456 0 3.40862283524286)
(260.682747922511 0 4.75585461952913)
(257.966065223611 0 1.86073360845998)
(258.49580732871 0 2.30403723319191)
(259.290830174681 0 2.17659190455476)
(259.773718713746 0 2.10893882229208)
(260.084989445052 0 2.14512483022004)
(260.108792656332 0 2.44401888379373)
(260.273105814364 0 3.39413395107823)
(260.712244641524 0 4.75381551074853)
(257.965204251584 0 1.85463450676906)
(258.50727213394 0 2.2857988320067)
(259.290154977499 0 2.16443158742347)
(259.773613866358 0 2.09868972580832)
(260.090027162913 0 2.14301479125768)
(260.121701844155 0 2.44425334690906)
(260.304129202238 0 3.37803476361889)
(260.742988447243 0 4.74889878181177)
(257.964162540337 0 1.84816191783238)
(258.518672503191 0 2.26686384997672)
(259.28896773888 0 2.15169866740263)
(259.771258500243 0 2.0878984660922)
(260.095132743878 0 2.14059493795077)
(260.134279281327 0 2.44445540367757)
(260.339896264654 0 3.36465094494289)
(260.773634280089 0 4.74220617487521)
(257.962949676985 0 1.84129050596566)
(258.529940682376 0 2.24722644763844)
(259.287233621075 0 2.13833469811336)
(259.77259754265 0 2.07655331290506)
(260.100439858135 0 2.1379546938735)
(260.146334730572 0 2.44449714533401)
(260.367959744731 0 3.34459450162963)
(260.80449666014 0 4.73341689067571)
(257.961573247076 0 1.83399041441288)
(258.541049992517 0 2.2268726314541)
(259.285196002659 0 2.12434105516889)
(259.770575063771 0 2.06419186697409)
(260.105831919248 0 2.13507191640773)
(260.158526178033 0 2.44287670431343)
(260.380546542242 0 3.3205307842446)
(260.839449626888 0 4.72223936567407)
(257.960038820135 0 1.82622776268538)
(258.551968908652 0 2.20576649415059)
(259.2836181055 0 2.10976837374928)
(259.765749080139 0 2.05193942205337)
(260.110789537345 0 2.13137253588539)
(260.170704776702 0 2.44017866312671)
(260.378590223989 0 3.30205318085468)
(260.884269484172 0 4.70928517354649)
(257.958353693366 0 1.8179670802943)
(258.562649785387 0 2.18389589919524)
(259.281370481533 0 2.09454741871852)
(259.766734914305 0 2.03842081981816)
(260.115499443447 0 2.12738453599965)
(260.182865168447 0 2.43772098283618)
(260.371935279617 0 3.28707858782939)
(260.939048676828 0 4.69514520187644)
(257.956521299173 0 1.80916459605085)
(258.573078768501 0 2.16124093359231)
(259.279777253804 0 2.07858901393992)
(259.764964747578 0 2.02471618621766)
(260.120227758462 0 2.12305659260689)
(260.196298315061 0 2.43917507211617)
(260.371154680305 0 3.2686657796718)
(260.982676193642 0 4.67669732099818)
(257.954547885193 0 1.79977543687645)
(258.583219173923 0 2.13777470008981)
(259.277892020454 0 2.06192995192524)
(259.763124587479 0 2.01011747656236)
(260.12512498803 0 2.11831503846305)
(260.212740911019 0 2.43950261470618)
(260.375577697565 0 3.2527477269888)
(261.002757896638 0 4.64635562843729)
(257.952437242356 0 1.78974727199725)
(258.593039441831 0 2.1134699911441)
(259.276613522016 0 2.04456533968285)
(259.759058009219 0 1.99569596091442)
(260.130820698305 0 2.11328906733368)
(260.2370821672 0 2.43757172562794)
(260.39766588821 0 3.23520704226327)
(261.009732220072 0 4.62427583564942)
(257.950195498912 0 1.77902637408409)
(258.60249267888 0 2.08829192271932)
(259.276131406668 0 2.02648510186259)
(259.757340328074 0 1.98061179586749)
(260.137475834379 0 2.10750136929924)
(260.273560622534 0 2.43561390761898)
(260.437121141729 0 3.22425673848158)
(261.049340368968 0 4.60126062487999)
(257.947832162207 0 1.76755664008986)
(258.611540558106 0 2.06220747729026)
(259.27630354066 0 2.00757798006497)
(259.75766924453 0 1.96521872889846)
(260.142502811708 0 2.09898768363754)
(260.323797941463 0 2.43251409243963)
(260.491022510916 0 3.21244590267206)
(261.114136700201 0 4.57592594524071)
(257.945357220917 0 1.75527905051713)
(258.620147080796 0 2.03517934177119)
(259.277180856071 0 1.98775053137517)
(259.760092293519 0 1.94973285309578)
(260.142224852425 0 2.08907094177861)
(260.372419977953 0 2.42786607868434)
(260.552529380765 0 3.19903385987579)
(261.19483494914 0 4.54418255335893)
(257.942778936585 0 1.7421327977919)
(258.628279407736 0 2.0071792359584)
(259.277985512573 0 1.96685903363734)
(259.763725907163 0 1.9340104876004)
(260.139764157403 0 2.07828408917123)
(260.411409543996 0 2.42059168031691)
(260.618007002831 0 3.18386601711281)
(261.289331272085 0 4.51255681127912)
(257.940093538847 0 1.72805275999228)
(258.635925219174 0 1.9781900393851)
(259.278452914248 0 1.9448641571957)
(259.76813425434 0 1.91789481589196)
(260.144927667385 0 2.06545590478402)
(260.442237586838 0 2.411809590312)
(260.685988482698 0 3.1661854025064)
(261.391618965922 0 4.4774221739972)
(257.937277926377 0 1.71297122974013)
(258.643108532767 0 1.94819300973528)
(259.279009207758 0 1.92170310819135)
(259.773209821169 0 1.90123346718781)
(260.145507576215 0 2.05204167311659)
(260.467750008425 0 2.39999481414264)
(260.752546460425 0 3.14678974121773)
(261.495201546952 0 4.43895314532951)
(257.934292041604 0 1.69681706016352)
(258.649891179887 0 1.91716777906053)
(259.279731394915 0 1.89735048960394)
(259.778693033634 0 1.88389545004789)
(260.155192552171 0 2.03782834471269)
(260.493047204619 0 2.38717565177635)
(260.813808373284 0 3.12387242062043)
(261.594751449725 0 4.39643599700311)
(257.931093408206 0 1.67950602421976)
(258.656409687669 0 1.88511162479664)
(259.279807237518 0 1.87170063272834)
(259.784478743306 0 1.86563166473871)
(260.166935522316 0 2.02276935605903)
(260.519458866824 0 2.37240198890864)
(260.871786443842 0 3.09865436479652)
(261.688606316824 0 4.35019706075571)
(257.927677913072 0 1.66092693923108)
(258.662865916645 0 1.85199566734223)
(259.28200591692 0 1.84488433244931)
(259.790465602662 0 1.84634388367294)
(260.180463314809 0 2.00649031480542)
(260.548564561657 0 2.3566259832274)
(260.929259038812 0 3.07132087307918)
(261.77723478595 0 4.29985290937798)
(257.924203792546 0 1.64093780069217)
(258.669516109179 0 1.81781493417523)
(259.284004112915 0 1.81658207938957)
(259.796343162272 0 1.82595470497936)
(260.193815217846 0 1.98846012478001)
(260.579195606559 0 2.33847111039682)
(260.987951249389 0 3.04171152123965)
(261.862715244754 0 4.24568241764707)
(257.92105570466 0 1.61936634637413)
(258.676466198261 0 1.78258707871298)
(259.285737214751 0 1.78705007316295)
(259.80191023229 0 1.80430500266886)
(260.208666116793 0 1.9694385990883)
(260.612047599572 0 2.31889862519088)
(261.048976709348 0 3.00994976204551)
(261.946871032967 0 4.18742124424413)
(257.918552930508 0 1.59607180600199)
(258.683345854029 0 1.74628223216284)
(259.288573693586 0 1.75625788350994)
(259.806298710605 0 1.78081240921571)
(260.222338076506 0 1.94784604129338)
(260.64589800021 0 2.29643635174632)
(261.112300136835 0 2.97560492682575)
(262.031326074109 0 4.12509226845102)
(257.914765938546 0 1.57144128275543)
(258.688341689426 0 1.7087484831897)
(259.286993059071 0 1.7239307835639)
(259.809087932306 0 1.75602177154365)
(260.240614734313 0 1.9252939809599)
(260.682274777245 0 2.27197885844402)
(261.177837457466 0 2.93850364602218)
(262.116726145591 0 4.05832802446896)
(257.91323241743 0 1.54516037719979)
(258.690129741942 0 1.67012563014974)
(259.279708964538 0 1.69080819732794)
(259.810877047793 0 1.72936592439663)
(260.26066851814 0 1.90070338317054)
(260.720795289342 0 2.24517865348534)
(261.245404884799 0 2.8985802764607)
(262.203439598493 0 3.98689685894062)
(257.914724134046 0 1.5172398356685)
(258.698533306182 0 1.63026443175363)
(259.281911127094 0 1.65559274369322)
(259.813606219988 0 1.70069223645647)
(260.280189955221 0 1.87369888447664)
(260.760091800412 0 2.21556653257747)
(261.314255811332 0 2.85550307246393)
(262.291604385001 0 3.91045880624964)
(257.916563804297 0 1.48741593739207)
(258.706868819374 0 1.58923408178794)
(259.281422993613 0 1.6196215465062)
(259.816389806732 0 1.67000801229948)
(260.298957618434 0 1.84418037808404)
(260.799582805567 0 2.18293952428038)
(261.383680742361 0 2.80905920006832)
(262.381440135648 0 3.82868406151921)
(257.918367843044 0 1.45558709389793)
(258.714888348102 0 1.54696578891431)
(259.285150029632 0 1.58207345303281)
(259.82227585777 0 1.63696353969299)
(260.318392050942 0 1.81213929389943)
(260.839219548363 0 2.14691160275563)
(261.452988008619 0 2.75879049058273)
(262.473208583045 0 3.74117425426646)
(257.920300720532 0 1.42170103179355)
(258.723001077841 0 1.50336327048737)
(259.288704302157 0 1.54288636554308)
(259.830693809664 0 1.60173904546265)
(260.339816281785 0 1.77776893587394)
(260.880157109867 0 2.1077785714699)
(261.522248041744 0 2.70458010499283)
(262.566896041955 0 3.64753428509361)
(257.922254971086 0 1.38566184353053)
(258.730875039256 0 1.45834148023002)
(259.293585125951 0 1.50188003025012)
(259.84101576642 0 1.56407086589431)
(260.361552147356 0 1.74039619950469)
(260.921992909239 0 2.06496168418306)
(261.591622760065 0 2.64615515954661)
(262.661666047772 0 3.54748716575239)
(257.924251956338 0 1.34738809252875)
(258.738649744148 0 1.41180107251149)
(259.299083058296 0 1.45882627913191)
(259.853350425398 0 1.52386851158949)
(260.38485549685 0 1.7002663651435)
(260.96520042649 0 2.01844096762997)
(261.661462407866 0 2.58328383799178)
(262.756339567048 0 3.44091131099146)
(257.926300579334 0 1.30678877360915)
(258.746357750897 0 1.36363959237193)
(259.305093407936 0 1.413579058085)
(259.866225935714 0 1.48100459104397)
(260.409309803171 0 1.65700504488596)
(261.009943614698 0 1.96798365777451)
(261.732112073895 0 2.51576162041452)
(262.851683136726 0 3.32820262213057)
(257.928392878342 0 1.26376762475667)
(258.754015005598 0 1.31374361861979)
(259.311558778517 0 1.36602347674331)
(259.879622492353 0 1.43540666954871)
(260.434723052183 0 1.61038843309141)
(261.056031114555 0 1.9133188136177)
(261.803487200764 0 2.44327109105393)
(262.948301741448 0 3.2091471290678)
(257.930517328352 0 1.21822506253099)
(258.761622439624 0 1.26199017663032)
(259.318502384776 0 1.31603601654956)
(259.89358011109 0 1.38691923990349)
(260.461023273204 0 1.5601769673687)
(261.103102588782 0 1.85416984566291)
(261.875188612616 0 2.36543221195762)
(263.046444086047 0 3.08353295641442)
(257.932659032974 0 1.17005809007054)
(258.76917145089 0 1.20824473054516)
(259.325911137594 0 1.26348284501858)
(259.908082845852 0 1.33537544463608)
(260.488134383569 0 1.5061343287549)
(261.150778778682 0 1.79028588349557)
(261.9468332559 0 2.28186338572302)
(263.145161303416 0 2.9510230637139)
(257.934799646714 0 1.11916017706102)
(258.77664162473 0 1.15236305290652)
(259.333744322249 0 1.20822138515557)
(259.923089088114 0 1.28059787317427)
(260.515959279671 0 1.44802449666202)
(261.198735842221 0 1.72143332435372)
(262.018220386453 0 2.19219673227863)
(263.241825501756 0 2.81159008613097)
(257.936921152017 0 1.06542127829512)
(258.784009578341 0 1.09419262188356)
(259.341946668816 0 1.15009950364367)
(259.938530695997 0 1.22239944968248)
(260.54435376289 0 1.38560803582753)
(261.246706738868 0 1.64737356032629)
(262.089375269316 0 2.09616360593686)
(263.331843502242 0 2.66523921154413)
(257.939006781857 0 1.00872768837806)
(258.791250586562 0 1.03357347010825)
(259.35045548114 0 1.0889554371885)
(259.954325649247 0 1.1605836822445)
(260.573132217789 0 1.31864158284005)
(261.294410572351 0 1.5678358286648)
(262.160169570632 0 1.99348623081765)
(263.417188302462 0 2.51361747117048)
(257.941040412765 0 0.948961999899263)
(258.79833685053 0 0.970339407703209)
(259.359198189201 0 1.0246186619863)
(259.97037209692 0 1.09494386318872)
(260.602080386184 0 1.24687562860089)
(261.341583291971 0 1.48253777799005)
(262.230278316506 0 1.88380668598712)
(263.498203379371 0 2.35680674272503)
(257.943006018836 0 0.886003196977521)
(258.805235638506 0 0.904319733216875)
(259.368089554611 0 0.956912352868602)
(259.986543523548 0 1.02526469965821)
(260.63095386695 0 1.17005080657592)
(261.387939946567 0 1.3911731536453)
(262.29926446705 0 1.76676174220368)
(263.57513395648 0 2.19497613804824)
(257.944887435836 0 0.819726803114898)
(258.811907851587 0 0.835340994752272)
(259.37703001198 0 0.885656003542904)
(260.002687050291 0 0.951325043051246)
(260.659479182908 0 1.08790005448209)
(261.433115759443 0 1.29342181174242)
(262.366464312187 0 1.64197500622826)
(263.64941584816 0 2.02770083744106)
(257.946668217488 0 0.75000502736107)
(258.81830655336 0 0.763228407860053)
(259.385903543424 0 0.810668143640191)
(260.018620785961 0 0.872900998153219)
(260.687356091409 0 1.00015440171725)
(261.476647155509 0 1.18897694851949)
(262.431008126106 0 1.50898893656079)
(263.724506189489 0 1.85395582082879)
(257.948331490104 0 0.676706954372847)
(258.824375454916 0 0.687806789778128)
(259.394576019846 0 0.73176964321114)
(260.03412902565 0 0.789770932157685)
(260.714247776816 0 0.906547853644691)
(261.518069205232 0 1.0775633531463)
(262.492182117054 0 1.36731334047153)
(263.797778606234 0 1.67188552093963)
(257.949859740055 0 0.599698923810831)
(258.830047646515 0 0.608901084460731)
(259.402895208312 0 0.648786619929742)
(260.048961348368 0 0.701723144137907)
(260.739761812712 0 0.806824333637107)
(261.556902837374 0 0.95890505614107)
(262.549368677275 0 1.21655023721098)
(263.865901540162 0 1.48067932484158)
(257.951235148234 0 0.518845267722704)
(258.83524630907 0 0.5263364390443)
(259.410694981431 0 0.561551278366798)
(260.062837963978 0 0.608563480122053)
(260.763446546738 0 0.700753982278765)
(261.592556139395 0 0.832732545100189)
(262.60175570478 0 1.05635214038701)
(263.927715904688 0 1.28013748214955)
(257.952439004705 0 0.434009393236955)
(258.839881520645 0 0.439937820076166)
(259.417782503347 0 0.469901003738017)
(260.0754187524 0 0.510120582796324)
(260.78474910427 0 0.588151496079741)
(261.624291212548 0 0.698826709446207)
(262.648317626252 0 0.886426950105941)
(263.982251801459 0 1.07001554136767)
(257.953443953449 0 0.345055356127294)
(258.843826173473 0 0.349533895563591)