/*--------------------------------*- C++ -*----------------------------------*\
  =========                 |
  \\      /  F ield         | OpenFOAM: The Open Source CFD Toolbox
   \\    /   O peration     | Website:  https://openfoam.org
    \\  /    A nd           | Version:  6
     \\/     M anipulation  |
\*---------------------------------------------------------------------------*/
FoamFile
{
    version     2.0;
    format      ascii;
    class       volVectorField;
    location    "0.0052";
    object      U_0;
}
// * * * * * * * * * * * * * * * * * * * * * * * * * * * * * * * * * * * * * //

dimensions      [0 1 -1 0 0 0 0];

internalField   nonuniform List<vector> 
18800
(
(91.3417580134127 0 0.0460843202079805)
(52.4234189479678 0 0.0989856245027055)
(45.6066831394084 0 0.0286541992207037)
(44.2613560027219 0 0.0248487191808672)
(43.1770556076016 0 0.0240922009257456)
(42.0106232607464 0 -0.0326744007595192)
(43.4296637370695 0 -0.158600951492666)
(77.7763640377755 0 0.0775236999962283)
(131.350831905991 0 0.369637639585549)
(86.0416719114321 0 0.171830855413575)
(75.0169752400086 0 0.053952086628156)
(71.2322223439352 0 0.0417834723541412)
(68.7752922608783 0 0.0406651110494765)
(66.5948424625119 0 0.0624191836810075)
(65.2529650617273 0 0.0821939510591747)
(82.5022505861269 0 -0.0299265669357896)
(156.582352959546 0 0.451511605399848)
(110.261311621188 0 0.283996050148877)
(95.5283125600396 0 0.0798239255937418)
(89.8554619378596 0 0.0496920762836046)
(86.350382639753 0 0.044775863728641)
(83.4261282558887 0 0.0193876083716253)
(81.0040800314958 0 0.0207165188659485)
(85.8610024764053 0 -0.0434564473980693)
(174.990555078349 0 0.780379061162154)
(129.361714649391 0 0.400741103363477)
(111.503886116263 0 0.108421597350729)
(104.178758766394 0 0.0576657691310918)
(99.7590268454508 0 0.0475900322178076)
(96.2113530400303 0 0.0491497927543471)
(93.1029477273242 0 0.054611875566559)
(89.1755715434219 0 -0.0175928602945795)
(189.47207340831 0 0.657821702350552)
(145.354486172809 0 0.544829614839012)
(124.890107671661 0 0.151635973323939)
(116.044735146193 0 0.0742141502946293)
(110.776769356383 0 0.056806483646405)
(106.664071587334 0 0.0411478853233179)
(103.004974343542 0 0.0389222261934264)
(94.0161204564138 0 0.0315218379327071)
(201.232908694478 0 1.32449671592422)
(159.262599619722 0 0.703494352116658)
(136.673947276357 0 0.2089430071987)
(126.393847948276 0 0.100277973050675)
(120.311723130499 0 0.0736395997980161)
(115.660436028713 0 0.0614551474388344)
(111.488031219732 0 0.0381513983444217)
(100.626378533127 0 0.0789237071656428)
(210.87625015491 0 1.44430852214183)
(171.630898583127 0 0.88186864693132)
(147.40252715313 0 0.280625117192958)
(135.750973558866 0 0.135214353241931)
(128.870063945233 0 0.0968057132478245)
(123.690162821777 0 0.0762966337182005)
(118.985371379496 0 -0.00631240293451399)
(107.101015187589 0 0.126836602533511)
(218.744713348031 0 1.61281725741009)
(182.75949427851 0 1.06745268810744)
(157.397401666492 0 0.36585552462851)
(144.430479365935 0 0.177995362331871)
(136.754788405624 0 0.125241618645616)
(131.046239653554 0 0.100617419464959)
(125.775126079754 0 0.00321912012157937)
(113.139505104395 0 0.184839843786967)
(225.151249107151 0 1.67227316693217)
(192.82338494869 0 1.262896298519)
(166.853847813176 0 0.463088055604706)
(152.632503857591 0 0.228442227656915)
(144.159337529228 0 0.158573413572672)
(137.916314687164 0 0.126617977400406)
(132.06081168771 0 0.0302791689181123)
(118.829745819773 0 0.241048519137061)
(230.391462247427 0 1.69820269853026)
(201.937556117121 0 1.4486581898986)
(175.890579825362 0 0.574703904982439)
(160.491208679287 0 0.286784748216026)
(151.214586766585 0 0.196870830555351)
(144.42760721836 0 0.157766693862407)
(137.981662021202 0 0.0663441637481277)
(124.255955858202 0 0.331654031560183)
(234.763100507564 0 1.58282703995212)
(210.191145993828 0 1.63495162019786)
(184.575673501596 0 0.695414615743648)
(168.099963652083 0 0.353427491377233)
(158.013540779681 0 0.240462258517296)
(150.670713601541 0 0.192797680843674)
(143.631675175597 0 0.108756588319938)
(129.49390041825 0 0.32838640081199)
(238.568398544296 0 1.58658490698277)
(217.662663163543 0 1.79207570563056)
(192.94034167669 0 0.833211333160527)
(175.52482569529 0 0.429058489198956)
(164.624890831113 0 0.289802954908417)
(156.712660456757 0 0.232645990767125)
(149.080843765132 0 0.160227707932736)
(134.578037968659 0 0.4525428579658)
(241.989993844097 0 1.82166785980793)
(224.409390684209 0 1.94633940522138)
(200.988254008696 0 0.971988390041431)
(182.811722772929 0 0.514147409036017)
(171.100715323939 0 0.345439018470081)
(162.604826153737 0 0.277442040605079)
(154.381651114905 0 0.221114542549933)
(139.533917152473 0 0.594528675775619)
(245.08563630224 0 1.90784709417842)
(230.453626941647 0 2.06563662161118)
(208.701177893124 0 1.1328384319891)
(189.989951168787 0 0.609551730440636)
(177.48089337425 0 0.407964513561796)
(168.387737746286 0 0.327791442148354)
(159.568637972189 0 0.279072364500893)
(144.399297449701 0 0.701981986378191)
(247.793088291532 0 1.98276613634957)
(235.78637514983 0 2.19516046654867)
(216.045357403702 0 1.27344233296251)
(197.073033614775 0 0.715133230446017)
(183.795511023741 0 0.478018024260873)
(174.093967454731 0 0.384143855878744)
(164.665891975802 0 0.340087457241809)
(149.194952889118 0 0.792035058443841)
(250.067209555539 0 1.99475661628997)
(240.403717362074 0 2.27885889830272)
(222.970428399866 0 1.45046724052497)
(204.057532953832 0 0.831998851194802)
(190.065886059266 0 0.556248605136298)
(179.749819639789 0 0.447095099062109)
(169.698717725175 0 0.416451957567794)
(153.925294760734 0 0.885702484857731)
(251.929722121872 0 2.00281981421387)
(244.318133255981 0 2.38250744644897)
(229.416938431123 0 1.56647017754873)
(210.920044369868 0 0.958253287223839)
(196.30450291654 0 0.643308802971965)
(185.376298209454 0 0.517202933697731)
(174.692475017584 0 0.500013265533725)
(158.583227529317 0 0.979263408180214)
(253.438187013159 0 2.0022033850839)
(247.576940302191 0 2.43004454727156)
(235.309816075611 0 1.75233965352555)
(217.613360387325 0 1.09555272783962)
(202.513925165145 0 0.739761738471726)
(190.989489589002 0 0.595121146761479)
(179.667865631007 0 0.593988446753982)
(163.164437794666 0 1.0736689012075)
(254.653958492192 0 2.00002077369315)
(250.248309958789 0 2.51103366992548)
(240.574925110325 0 1.81262612638836)
(224.063067041729 0 1.23762268594391)
(208.684780207203 0 0.846022004504186)
(196.600423620074 0 0.68129834566115)
(184.642274731899 0 0.697676552957197)
(167.675078501296 0 1.16825279411925)
(255.626838150025 0 1.99664321308139)
(252.408322013635 0 2.53648856420368)
(245.127940460248 0 1.99862661548349)
(230.168133590845 0 1.38754665660945)
(214.792820059016 0 0.96206399144335)
(202.214348188258 0 0.776549653331976)
(189.630125051778 0 0.812523183324588)
(172.130833191613 0 1.26317364902759)
(256.391989020624 0 1.99119074848434)
(254.115963554115 0 2.59291489223994)
(248.911108982204 0 1.98867856341875)
(235.808470266257 0 1.53106557357437)
(220.795621175186 0 1.08734273842913)
(207.829316788721 0 0.880736104053888)
(194.642376348243 0 0.938831657406987)
(176.551249507753 0 1.35784529627716)
(256.970142625537 0 1.98897036911664)
(255.422883883689 0 2.59674271627665)
(251.88403743469 0 2.15924539848548)
(240.862616248199 0 1.67431999180983)
(226.62947667567 0 1.22002797276633)
(213.433778092422 0 0.995275229413609)
(199.685776315728 0 1.07758201426638)
(180.950256469096 0 1.45207766900845)
(257.370580231773 0 1.97647528514138)
(256.378346094755 0 2.63022034473537)
(254.075003194727 0 2.09499074941264)
(245.232565226568 0 1.797117809626)
(232.208454463046 0 1.35744768439035)
(219.003248040167 0 1.11782162711093)
(204.762099034853 0 1.22970636614741)
(185.334950642875 0 1.54869040644697)
(257.606723545979 0 1.96446394017474)
(257.033066324045 0 2.62730918257081)
(255.551011400599 0 2.22645278514044)
(248.867471271538 0 1.90570337060953)
(237.427277382423 0 1.49479383756319)
(224.495756762767 0 1.25206941456811)
(209.866468861437 0 1.39546063211216)
(189.714640104541 0 1.64686439987315)
(257.717064981901 0 1.92472872134904)
(257.441283936994 0 2.63748137682998)
(256.559247780439 0 2.2067032366966)
(251.770946888819 0 1.99439734471579)
(242.17149604783 0 1.62702085720662)
(229.847914470079 0 1.38855700199905)
(214.98448203776 0 1.57614672513737)
(194.111416093949 0 1.76932353730037)
(257.79019871797 0 1.94894233129847)
(257.769475948196 0 2.62591053379262)
(257.289819826329 0 2.26201219152147)
(254.005964643524 0 2.05681286990148)
(246.335999010255 0 1.74777826842081)
(234.971825029307 0 1.53826733549542)
(220.088552068177 0 1.76918743328403)
(198.56332320224 0 1.92115128827958)
(257.850735760307 0 1.92883571015792)
(258.038474185932 0 2.63720595968226)
(257.844558082797 0 2.24967123942383)
(255.671047283595 0 2.10648258335997)
(249.846395299273 0 1.8507371711835)
(239.759591357175 0 1.67395774908396)
(225.135047107884 0 1.97687558149362)
(203.108489668862 0 2.10818261581914)
(257.894693447116 0 1.94765407183464)
(258.222011382203 0 2.62555040343681)
(258.248232510199 0 2.29248177921784)
(256.87402002541 0 2.13785495875889)
(252.67468238989 0 1.93531188770457)
(244.092317764486 0 1.82541865341841)
(230.067162562787 0 2.18977390570818)
(207.764772038147 0 2.32462079672476)
(257.907440161522 0 1.93690405366147)
(258.314826258444 0 2.62878767291867)
(258.534676975869 0 2.27546923313879)
(257.714565528943 0 2.15626509031063)
(254.844492296978 0 1.9993403358401)
(247.864296357289 0 1.93536115000161)
(234.822682958498 0 2.4174041797443)
(212.524144127928 0 2.57344660877866)
(257.91040427658 0 1.9322887395012)
(258.334444733571 0 2.61043226326214)
(258.776263273675 0 2.30969506489647)
(258.288606807502 0 2.17647074618879)
(256.423071267371 0 2.04419269434605)
(251.001414535318 0 2.06721779476445)
(239.350062549594 0 2.63796589882323)
(217.366273372248 0 2.796957929723)
(257.91038159661 0 1.9308940724883)
(258.342200113685 0 2.59619990859014)
(258.966832225193 0 2.28389595747767)
(258.684384247412 0 2.18069992686592)
(257.505811344819 0 2.07669713905742)
(253.488248600625 0 2.13293399610501)
(243.586561583272 0 2.88762728569307)
(222.265281113837 0 3.05662688346761)
(257.915110015603 0 1.93129357461053)
(258.353349386516 0 2.58249337113073)
(259.094203012107 0 2.30318684806064)
(258.958885945447 0 2.18944399971308)
(258.219370264134 0 2.0942606011451)
(255.362623431865 0 2.22852707954275)
(247.392502902015 0 3.07820688854371)
(227.246373110049 0 3.32857023952277)
(257.921524510446 0 1.9290723400058)
(258.360605329753 0 2.570550684386)
(259.173761093492 0 2.29649181455303)
(259.196009423611 0 2.19768707877345)
(258.724684782109 0 2.11000510550629)
(256.710909206854 0 2.254859234975)
(250.550954083392 0 3.24803256301205)
(232.444696237022 0 3.60765214120185)
(257.927896419353 0 1.92653489649816)
(258.365548335357 0 2.56012650909824)
(259.216366598928 0 2.30617087003069)
(259.403553513869 0 2.19021389040994)
(259.097667718802 0 2.12248878231658)
(257.632958268642 0 2.31187894930367)
(252.900384678038 0 3.36452292000659)
(237.937827981981 0 3.86186971739413)
(257.9339429783 0 1.92410805974238)
(258.369596184534 0 2.54920543915084)
(259.256728200318 0 2.30584638596661)
(259.563981348101 0 2.19375140954475)
(259.370855611502 0 2.13148097929279)
(258.28041288645 0 2.32363874523581)
(254.674399363231 0 3.44451734779093)
(243.221813167934 0 4.09168887739526)
(257.939640217248 0 1.92162342727457)
(258.373349240786 0 2.53766054449023)
(259.304352232558 0 2.30242559386382)
(259.67331446597 0 2.19632885018521)
(259.562854984958 0 2.13923316357309)
(258.746815639697 0 2.36262523134638)
(256.04867639937 0 3.48736202790043)
(247.676359227827 0 4.26939041483799)
(257.944985664238 0 1.91908571337436)
(258.377047338799 0 2.52555537154084)
(259.339380942991 0 2.29731016729382)
(259.733782273166 0 2.18874392829591)
(259.688888956758 0 2.14547050651667)
(259.082884488806 0 2.36619948209587)
(257.099780108516 0 3.51046613238052)
(251.141696206436 0 4.39147195516277)
(257.949972575716 0 1.91675160732673)
(258.380878095881 0 2.51297149460641)
(259.359689035559 0 2.29200781298978)
(259.754984285262 0 2.18598243879755)
(259.76659408793 0 2.14844652775678)
(259.312228825228 0 2.39431808838403)
(257.88131258918 0 3.52701686389496)
(253.734342305457 0 4.48713868941884)
(257.954287994682 0 1.91408763119676)
(258.384979748283 0 2.49995722329232)
(259.37082543184 0 2.28713243276199)
(259.76322449974 0 2.18389801374034)
(259.814971393508 0 2.15009993680401)
(259.471758270987 0 2.39387990081535)
(258.455072388597 0 3.53329730268583)
(255.696057632308 0 4.56653419808784)
(257.957864047422 0 1.91128343788902)
(258.389499610863 0 2.48657796871111)
(259.37653135075 0 2.28165341561946)
(259.769796232442 0 2.18252150268201)
(259.847185627357 0 2.1519784201945)
(259.587466833899 0 2.41490604457155)
(258.881835202142 0 3.53511352695489)
(257.221493678211 0 4.64459917898169)
(257.960657053558 0 1.90830378484072)
(258.394490231935 0 2.47264774801603)
(259.378815602195 0 2.27579297075743)
(259.775706924873 0 2.1805421370465)
(259.872465997544 0 2.15425242497357)
(259.684236344556 0 2.41036132806434)
(259.215118315229 0 3.53320862671355)
(258.399159255984 0 4.67235788126206)
(257.962766334879 0 1.90515254923664)
(258.400178955519 0 2.45868006795679)
(259.377175225193 0 2.26871275572272)
(259.780292146133 0 2.17798056661352)
(259.904138519732 0 2.15482360722036)
(259.774463227557 0 2.43204436020438)
(259.530522424495 0 3.52035232539624)
(259.274896645457 0 4.71672989045565)
(257.964348637537 0 1.90182155602332)
(258.406726285291 0 2.44458843526017)
(259.370501256773 0 2.2612238710341)
(259.783746889181 0 2.17416700274523)
(259.963662603072 0 2.15881521280324)
(259.86753897882 0 2.42788180420577)
(259.79828804497 0 3.52339012662153)
(259.90261060462 0 4.68966408015977)
(257.965537589749 0 1.8982910266772)
(258.414137861502 0 2.43032147158646)
(259.358009673081 0 2.25463104414795)
(259.788404730865 0 2.17106107220256)
(260.027011737473 0 2.15585982293455)
(259.948251846987 0 2.43906350568824)
(259.9613511417 0 3.4882512479112)
(260.311896928215 0 4.7449002536856)
(257.966417355676 0 1.89453973391767)
(258.422373650361 0 2.41582858661302)
(259.342705897881 0 2.24732813074636)
(259.791170777891 0 2.16579043713202)
(260.063208441713 0 2.15638268350282)
(260.007541101539 0 2.43260484583032)
(260.062832355924 0 3.49579993973665)
(260.520417483344 0 4.73667880365295)
(257.967034795484 0 1.89054891087316)
(258.431399116749 0 2.40110925258881)
(259.327464792098 0 2.23974466213196)
(259.789201463804 0 2.15914249983835)
(260.068559426437 0 2.1551986133085)
(260.044463657832 0 2.43843236006226)
(260.117718693916 0 3.48228844423963)
(260.568484283812 0 4.74104137173618)
(257.967412850335 0 1.88630134079096)
(258.441151242215 0 2.38619640126155)
(259.315678606121 0 2.23065759510966)
(259.785515669775 0 2.15179439243932)
(260.066772644242 0 2.15382519190557)
(260.066103908058 0 2.43776766532728)
(260.148598035883 0 3.4685414459572)
(260.59423718874 0 4.7425037544589)
(257.967560230287 0 1.88178143089213)
(258.451407156205 0 2.37085305206319)
(259.31094465099 0 2.22013959693292)
(259.781650161149 0 2.14406365646366)
(260.067411276044 0 2.15228668875447)
(260.073723459003 0 2.44062179608906)
(260.173273612639 0 3.45361147948363)
(260.611405083364 0 4.74431616980189)
(257.967491670657 0 1.87698259342417)
(258.46202694775 0 2.35498353131756)
(259.30363651306 0 2.21006573072518)
(259.778165856861 0 2.13576897830908)
(260.070875197552 0 2.15002861095507)
(260.08061042979 0 2.44245174041184)
(260.198699062696 0 3.43905348572234)
(260.631632626435 0 4.74714501891655)
(257.967215996013 0 1.87188649296633)
(258.473061593393 0 2.33859927260407)
(259.299136047452 0 2.19927916214591)
(259.775289169431 0 2.12707725654696)
(260.075365382225 0 2.14865118020014)
(260.088109154408 0 2.44312088391945)
(260.224009941282 0 3.42500571351648)
(260.655541121491 0 4.75294914216698)
(257.966740933222 0 1.86647665709057)
(258.484373265175 0 2.32162290133831)
(259.294658438873 0 2.18823021060993)
(259.773360862144 0 2.11811175864939)
(260.080105402999 0 2.14699196060474)
(260.097692985486 0 2.44305894490478)
(260.24662529419 0 3.40862669884514)
(260.682750876804 0 4.75585838882766)
(257.966071210691 0 1.86073324651676)
(258.495812608007 0 2.3040371642531)
(259.290834976426 0 2.17659292020035)
(259.773722185017 0 2.10893913535352)
(260.084992704189 0 2.14512631628241)
(260.108795791636 0 2.44402100604165)
(260.273106751939 0 3.39413760798357)
(260.712247608746 0 4.75381922379481)
(257.965210229926 0 1.85463412776013)
(258.507277442294 0 2.28579874731932)
(259.290159752447 0 2.1644327802151)
(259.773617405146 0 2.09869022727952)
(260.090030185191 0 2.14301631541573)
(260.121704806946 0 2.4442555119745)
(260.304129439751 0 3.37803855030198)
(260.742991603335 0 4.74890257328692)
(257.964168509445 0 1.84816152061022)
(258.518677840046 0 2.26686373886583)
(259.288972566375 0 2.15169985643534)
(259.771261894777 0 2.0878990429241)
(260.095135542398 0 2.14059652066127)
(260.134282087706 0 2.44445762268639)
(260.339896637352 0 3.3646547053072)
(260.773637827647 0 4.74221005986903)
(257.962955636446 0 1.84129008947003)
(258.52994604199 0 2.24722630560962)
(259.287238437963 0 2.13833581195017)
(259.772601017286 0 2.0765538791284)
(260.100442460218 0 2.1379563138942)
(260.146337400849 0 2.44449945621218)
(260.36796172827 0 3.34459928643215)
(260.804500570274 0 4.73342089998898)
(257.961579196396 0 1.83398997733383)
(258.541055370919 0 2.22687245618583)
(259.28520086654 0 2.12434215745334)
(259.770578676224 0 2.06419239432419)
(260.105834350696 0 2.13507356695093)
(260.158528736809 0 2.4428791279921)
(260.380550142462 0 3.32053522709615)
(260.839453700326 0 4.72224347353379)
(257.960044759046 0 1.82622730386255)
(258.551974303851 0 2.20576628388407)
(259.283622893975 0 2.10976949012256)
(259.765752680541 0 2.05194004343267)
(260.110791842484 0 2.13137419179481)
(260.170707238485 0 2.44018118594264)
(260.378594834481 0 3.30205693634514)
(260.884273582866 0 4.70928933795856)
(257.958359621243 0 1.8179665981896)
(258.562655196726 0 2.18389565220674)
(259.281375331763 0 2.09454851018807)
(259.766738578539 0 2.03842147222513)
(260.115501693026 0 2.12738620367774)
(260.182867535908 0 2.43772351939438)
(260.371940276379 0 3.28708270834543)
(260.939052963853 0 4.695149510793)
(257.956527215748 0 1.80916408946837)
(258.573084194694 0 2.16124064879857)
(259.27978203418 0 2.07859006993194)
(259.764968316192 0 2.02471687257295)
(260.12023001476 0 2.12305827942644)
(260.196300591924 0 2.43917751116737)
(260.371160928486 0 3.26866945326679)
(260.982680795337 0 4.67670173074794)
(257.954553789758 0 1.79977490420677)
(258.583224615103 0 2.1377743764672)
(259.277896860868 0 2.06193098026543)
(259.763128109988 0 2.01011818007486)
(260.125127274727 0 2.11831675768763)
(260.212743022883 0 2.43950503717709)
(260.375583508338 0 3.25275175456087)
(261.002762673247 0 4.64636015032609)
(257.952443134507 0 1.78974671210717)
(258.593044897377 0 2.11346962792717)
(259.276618344347 0 2.04456633762671)
(259.759061569879 0 1.99569672101635)
(260.13082297077 0 2.11329076515234)
(260.237084257806 0 2.43757419466356)
(260.397669221742 0 3.23521109278078)
(261.00973713754 0 4.62428064197715)
(257.950201377967 0 1.77902578572247)
(258.602498149524 0 2.0882915196633)
(259.276136301914 0 2.02648605692726)
(259.757344157667 0 1.98061253753213)
(260.137478095766 0 2.10750308205033)
(260.273562703589 0 2.43561643958142)
(260.437123229773 0 3.22426044133364)
(261.049345273035 0 4.6012653044687)
(257.947838027745 0 1.7675560224375)
(258.611546044929 0 2.06220703365294)
(259.276308462925 0 2.00757887575067)
(259.757673194759 0 1.96521948938395)
(260.142504743693 0 2.09898934253273)
(260.323800027927 0 2.432516667095)
(260.491024106234 0 3.21244998787525)
(261.11414156037 0 4.57593070034845)
(257.945363072335 0 1.75527840275409)
(258.620152584626 0 2.03517885696798)
(259.277185828463 0 1.98775135875156)
(259.760096287489 0 1.94973363756576)
(260.142226385448 0 2.0890727251759)
(260.372422034631 0 2.42786872708176)
(260.552530430002 0 3.19903790664537)
(261.19483939683 0 4.54418706489211)
(257.942784773183 0 1.74213211923475)
(258.628284928094 0 2.0071787101213)
(259.277990494521 0 1.96685978207269)
(259.763729921468 0 1.93401129995487)
(260.139765639278 0 2.07828589253043)
(260.411411585143 0 2.42059437695796)
(260.618007294462 0 3.18387018033436)
(261.289335295458 0 4.51256127897624)
(257.940099359425 0 1.72805204980293)
(258.635930754868 0 1.97818947418612)
(259.278457880644 0 1.94486482412713)
(259.76813828108 0 1.91789563521215)
(260.144929252236 0 2.06545773257522)
(260.442239663066 0 2.41181238210706)
(260.685987917205 0 3.16618957119023)
(261.391622619728 0 4.47742627525618)
(257.937283728895 0 1.71297048690059)
(258.643114082519 0 1.94819240758313)
(259.279014160691 0 1.92170369499567)
(259.773213856735 0 1.9012342453213)
(260.145509254611 0 2.05204350860078)
(260.467752154353 0 2.39999772266499)
(260.752546167481 0 3.14679400848159)
(261.49520545783 0 4.43895720745561)
(257.934297823058 0 1.6968162835593)
(258.649896741499 0 1.91716714231682)
(259.279736315933 0 1.89735100139576)
(259.778697063932 0 1.8838961594378)
(260.155194393661 0 2.03783013792317)
(260.493049405343 0 2.38717861584717)
(260.813809315775 0 3.12387699943686)
(261.594755910765 0 4.3964398990148)
(257.931099164309 0 1.67950521281786)
(258.656415258008 0 1.88511095555148)
(259.279812122956 0 1.87170105340382)
(259.784482757393 0 1.86563233226766)
(260.166937668255 0 2.02277112403186)
(260.51946121215 0 2.37240501499833)
(260.871788443089 0 3.0986589703507)
(261.688611445365 0 4.35020095501729)
(257.927683638015 0 1.66092609251529)
(258.662871481996 0 1.85199496358273)
(259.282010893042 0 1.84488467891846)
(259.790469612058 0 1.84634457717188)
(260.180465721697 0 2.00649205747384)
(260.54856708667 0 2.35662899743923)
(260.929261786045 0 3.07132546709493)
(261.777240361384 0 4.29985673133914)
(257.924209478926 0 1.64093691934455)
(258.669521666 0 1.81781420154686)
(259.28400894004 0 1.81658218432956)
(259.796347190207 0 1.82595546014863)
(260.193817923574 0 1.98846187426298)
(260.57919841086 0 2.33847412509364)
(260.987954414738 0 3.04171599352425)
(261.862720969061 0 4.24568612927326)
(257.921061335176 0 1.61936543192009)
(258.676471704165 0 1.78258631196355)
(259.285742052036 0 1.78705016772192)
(259.801914347935 0 1.8043057974726)
(260.208669120079 0 1.96944036854141)
(260.612050657427 0 2.31890157770469)
(261.048980048541 0 3.00995405592661)
(261.946876627338 0 4.18742478688703)
(257.918558456292 0 1.59607086366551)
(258.683351239864 0 1.74628141564485)
(259.28857859003 0 1.756257827727)
(259.80630284476 0 1.78081309900461)
(260.222341353998 0 1.94784775884235)
(260.645901290755 0 2.29643923272552)
(261.11230346044 0 2.9756089869977)
(262.03133133582 0 4.12509559584597)
(257.91477137498 0 1.57144032895324)
(258.688347079652 0 1.70874762538398)
(259.286997927633 0 1.72393062704223)
(259.809092063021 0 1.75602246186083)
(260.240618437894 0 1.92529571015279)
(260.682278222758 0 2.27198164552638)
(261.177840642616 0 2.93850745608959)
(262.116730986999 0 4.0583311320616)
(257.913237773916 0 1.54515941755026)
(258.690135050745 0 1.67012474799622)
(259.279713977766 0 1.69080794329265)
(259.810881292056 0 1.72936661369757)
(260.260672463178 0 1.90070505990836)
(260.720798817299 0 2.24518131055133)
(261.245407848706 0 2.89858379330838)
(262.203443959255 0 3.9868997197225)
(257.914729375197 0 1.51723887519471)
(258.698538535444 0 1.63026351243258)
(259.281916041064 0 1.6555924177715)
(259.813610695851 0 1.70069284904083)
(260.280194180823 0 1.87370051649139)
(260.760095482975 0 2.21556907668801)
(261.314258639797 0 2.85550633350838)
(262.291608317049 0 3.91046144403452)
(257.916568925938 0 1.48741498672268)
(258.70687392814 0 1.58923313585486)
(259.281428068292 0 1.61962113234388)
(259.816394553176 0 1.6700085013549)
(260.298962155125 0 1.84418194413369)
(260.799586687023 0 2.1829419046239)
(261.383683536975 0 2.80906216515239)
(262.381443725208 0 3.82868648768351)
(257.918372882315 0 1.45558616420789)
(258.714893429196 0 1.54696483266507)
(259.285155035682 0 1.58207297701066)
(259.822280719779 0 1.63696391026835)
(260.318396812639 0 1.81214076590319)
(260.839223719694 0 2.14691383961461)
(261.452990991409 0 2.75879321035356)
(262.473212035432 0 3.74117653347659)
(257.920305665013 0 1.42170012812868)
(258.723006102797 0 1.50336231708416)
(259.288709344343 0 1.54288586134559)
(259.830698763916 0 1.60173932293755)
(260.339821016652 0 1.77777024476946)
(260.88016135159 0 2.10778052542059)
(261.522251246232 0 2.70458250402001)
(262.5668995448 0 3.64753645839309)
(257.922259822567 0 1.38566097312861)
(258.730880023584 0 1.45834054708682)
(259.293590147456 0 1.50187952841815)
(259.841020673041 0 1.56407108628829)
(260.361556865048 0 1.74039735497989)
(260.921997245891 0 2.06496337511634)
(261.591626251012 0 2.64615723594476)
(262.661669757884 0 3.54748927617304)
(257.924256709521 0 1.34738726119897)
(258.738654679607 0 1.41180017362257)
(259.299088088621 0 1.45882581386388)
(259.853355303577 0 1.52386872139367)
(260.384860132298 0 1.70026734079231)
(260.96520476902 0 2.01844233808407)
(261.661466173402 0 2.58328556806158)
(262.756343541936 0 3.44091339021965)
(257.926305227285 0 1.30678798670765)
(258.74636262379 0 1.36363873728937)
(259.305098438042 0 1.41357864881918)
(259.866230843969 0 1.4810048457916)
(260.409314456995 0 1.65700588335755)
(261.009948005018 0 1.96798472021206)
(261.73211610514 0 2.51576301112358)
(262.851687331425 0 3.32820471201011)
(257.928397416014 0 1.26376688711295)
(258.754019801709 0 1.31374281402077)
(259.311563796878 0 1.36602313595829)
(259.879627466463 0 1.43540698039671)
(260.434727824495 0 1.61038915517236)
(261.05603566345 0 1.91331959113041)
(261.803491529223 0 2.4432721805097)
(262.948306037412 0 3.20914926463874)
(257.930521756304 0 1.21822437846751)
(258.761627154954 0 1.26198942729869)
(259.318507382427 0 1.31603575363405)
(259.893585141435 0 1.38691960459647)
(260.461028182224 0 1.56017757622357)
(261.103107361693 0 1.85417035647451)
(261.875193262415 0 2.36543305915037)
(263.046448428512 0 3.08353519497646)
(257.932663354313 0 1.17005746312167)
(258.769176084909 0 1.20824403879434)
(259.325916108774 0 1.26348266604214)
(259.908087928786 0 1.335375858006)
(260.488139433154 0 1.50613483064739)
(261.150783800653 0 1.79028615995072)
(261.946838214957 0 2.28186407311845)
(263.145165753721 0 2.95102544208291)
(257.93480386549 0 1.11915961000275)
(258.776646177863 0 1.15236241739842)
(259.333749262428 0 1.20822128657126)
(259.923094217335 0 1.28059832608664)
(260.515964467465 0 1.44802490576398)
(261.198741115561 0 1.72143342463545)
(262.018225619946 0 2.19219736196133)
(263.241830419525 0 2.81159270309374)
(257.936925272554 0 1.0654207732944)
(258.784014050577 0 1.09419203679256)
(259.341951572081 0 1.15009946747101)
(259.93853586624 0 1.22239992408015)
(260.544359091676 0 1.3856083723127)
(261.246712265281 0 1.64737356478492)
(262.089380759091 0 2.0961642861757)
(263.33184879583 0 2.66524202764147)
(257.939010808585 0 1.0087272472317)
(258.791254976627 0 1.03357292599627)
(259.350460340367 0 1.0889554322961)
(259.954330858245 0 1.16058414644299)
(260.573137695964 0 1.31864186052803)
(261.294416356851 0 1.56783581745827)
(262.16017531939 0 1.99348705703237)
(263.417193934113 0 2.51362051867306)
(257.941044350103 0 0.948961624244529)
(258.798341155181 0 0.97033889402191)
(259.359202995052 0 1.02461865112272)
(259.970377346075 0 1.09494427450424)
(260.602086028139 0 1.24687584768272)
(261.341589344398 0 1.48253781482734)
(262.230284337762 0 1.88380772125353)
(263.498209311975 0 2.35680999936972)
(257.943009871151 0 0.886002888285167)
(258.805239852177 0 0.904319241411832)
(259.368094294461 0 0.956912300511944)
(259.98654881715 0 1.02526501200043)
(260.630959693567 0 1.17005095541593)
(261.387946282334 0 1.39117327995173)
(262.299270782014 0 1.76676301408776)
(263.575140155256 0 2.19497955382869)
(257.944891207604 0 0.819726562266242)
(258.811911966571 0 0.835340520534105)
(259.377034669534 0 0.885655881571406)
(260.002692393624 0 0.951325214786028)
(260.659485219535 0 1.08790011445541)
(261.433122400434 0 1.29342204480464)
(262.366470937199 0 1.64197650414977)
(263.649422272151 0 2.02770433785986)
(257.946671913592 0 0.750004853786333)
(258.818310560504 0 0.763227951789056)
(259.385908099525 0 0.810667936262467)
(260.018626183752 0 0.872901000094788)
(260.687362364097 0 1.00015435093557)
(261.476654125956 0 1.18897727657811)
(262.431015073366 0 1.5089906158612)
(263.724512765531 0 1.85395930980148)
(257.948335116119 0 0.676706845018362)
(258.824379345036 0 0.687806356425886)
(259.394580454459 0 0.731769351600751)
(260.034134480676 0 0.789770756665411)
(260.714254308206 0 0.906547673027157)
(261.518076522706 0 1.07756373442489)
(262.492189386183 0 1.36731512010857)
(263.797785386128 0 1.67188890928992)
(257.949863302306 0 0.599698872337624)
(258.830051412467 0 0.60890068101914)
(259.402899503233 0 0.648786262875155)
(260.048966859332 0 0.701722811142331)
(260.739768616969 0 0.80682401737619)
(261.556910512384 0 0.958905430607545)
(262.549376259464 0 1.21655200870828)
(263.865908516509 0 1.48068250006843)
(257.951238653695 0 0.518845264213881)
(258.835249947939 0 0.526336073889029)
(259.410699123726 0 0.561550886436149)
(260.062843524811 0 0.608563035353824)
(260.76345362313 0 0.700753550092438)
(261.592564169111 0 0.832732855440722)
(262.601763588406 0 1.05635378612)
(263.927723054657 0 1.2801403356538)
(257.952442460867 0 0.434009424507958)
(258.839885035065 0 0.439937501532164)
(259.417786488661 0 0.469900610723531)
(260.075424356127 0 0.510120089378146)
(260.784756440631 0 0.588151002233745)
(261.624299580488 0 0.698826928027223)
(262.648325792783 0 0.886428364200127)
(263.982259107077 0 1.07001797056795)
(257.953447368422 0 0.345055406646985)
(258.843829572771 0 0.349533632114469)